 Gaussian 09, Revision A.02,
 Gaussian 09:  EM64L-G09RevA.02 11-Jun-2009

 ----------------------------
 # HF/6-311+G(2df,p) Opt Freq
 ----------------------------

 -----
 title
 -----
 Symbolic Z-matrix:
 Charge =  0 Multiplicity = 1

 SCF Done:  E(RHF) =  -430.856851594     A.U. after   14 cycles
 SCF Done:  E(RHF) =  -430.910898480     A.U. after   12 cycles
 SCF Done:  E(RHF) =  -430.982135891     A.U. after   11 cycles
 SCF Done:  E(RHF) =  -430.990586319     A.U. after   10 cycles
 SCF Done:  E(RHF) =  -430.992132010     A.U. after   11 cycles
 SCF Done:  E(RHF) =  -430.995370831     A.U. after   12 cycles
 SCF Done:  E(RHF) =  -430.994654204     A.U. after   11 cycles
 SCF Done:  E(RHF) =  -430.997555141     A.U. after   11 cycles
 SCF Done:  E(RHF) =  -430.997761495     A.U. after   10 cycles
 SCF Done:  E(RHF) =  -430.997781192     A.U. after   14 cycles
 SCF Done:  E(RHF) =  -430.997785006     A.U. after   14 cycles
 SCF Done:  E(RHF) =  -430.997785174     A.U. after   14 cycles
 Optimization completed.
    -- Stationary point found.
 Normal termination of Gaussian 09 at Fri May 29 10:27:32 2015.

 ----------------------------------------------------------------------
 #N Geom=AllCheck Guess=TCheck SCRF=Check GenChk RHF/6-311+G(2df,p) Fre
 q
 ----------------------------------------------------------------------

 title
 -----
 Redundant internal coordinates taken from checkpoint file:
 fsadshiyte.chk
 Charge =  0 Multiplicity = 1

                         Standard orientation:
 ---------------------------------------------------------------------
 Center     Atomic      Atomic             Coordinates (Angstroms)
 Number     Number       Type             X           Y           Z
 ---------------------------------------------------------------------
      1          6           0        0.432331    0.014711   -0.000029
      2          9           0        0.542302   -0.761522   -1.059730
      3          9           0        1.464685    0.830533    0.000233
      4          9           0        0.541753   -0.761239    1.059908
      5          6           0       -0.869545    0.785546   -0.000481
      6          1           0       -0.860990    1.423786   -0.875065
      7          1           0       -0.861048    1.424953    0.873234
      8          7           0       -2.051263   -0.029712    0.000011
      9          1           0       -2.117339   -0.605316    0.813018
     10          1           0       -2.117162   -0.606930   -0.811901
 ---------------------------------------------------------------------

 SCF Done:  E(RHF) =  -430.997785174     A.U. after    1 cycles

 The electronic state is 1-A.
 Alpha  occ. eigenvalues --  -26.33841 -26.33839 -26.33836 -15.56155 -11.48952
 Alpha  occ. eigenvalues --  -11.28272  -1.74731  -1.64303  -1.64226  -1.22038
 Alpha  occ. eigenvalues --   -1.02777  -0.92129  -0.83668  -0.83453  -0.79433
 Alpha  occ. eigenvalues --   -0.72830  -0.71798  -0.69616  -0.66883  -0.66358
 Alpha  occ. eigenvalues --   -0.64948  -0.61433  -0.58700  -0.55954  -0.42225
 Alpha virt. eigenvalues --    0.06998   0.08903   0.09523   0.10196   0.12929
 Alpha virt. eigenvalues --    0.12976   0.14084   0.16208   0.18750   0.18831
 Alpha virt. eigenvalues --    0.24190   0.28663   0.28761   0.29263   0.30979

 Mulliken atomic charges:
              1
     1  C    0.713941
     2  F   -0.290806
     3  F   -0.291392
     4  F   -0.290740
     5  C   -0.071366
     6  H    0.147897
     7  H    0.147915
     8  N   -0.603860
     9  H    0.269201
    10  H    0.269209
 Sum of Mulliken atomic charges =   0.00000

 Dipole moment (field-independent basis, Debye):
    X=             -1.2045    Y=              0.2412    Z=              0.0004  Tot=              1.2284
 Quadrupole moment (field-independent basis, Debye-Ang):
   XX=            -38.0716   YY=            -32.8507   ZZ=            -32.5991
   XY=              2.1756   XZ=             -0.0031   YZ=              0.0008

  Exact polarizability:  34.155   1.462  31.835  -0.001   0.000  30.996
 Approx polarizability:  27.617   1.364  28.625  -0.001   0.001  29.136

                     1                      2                      3
                     A                      A                      A
 Frequencies --   126.1736               243.1188               297.5009
 Red. masses --     2.8289                 5.7537                 1.2908
 Frc consts  --     0.0265                 0.2004                 0.0673
 IR Inten    --     0.0026                 6.7710                43.9428
 Raman Activ --     0.1005                 0.1708                 0.1367

                     4                      5                      6
                     A                      A                      A
 Frequencies --   406.1090               451.3124               585.8484
 Red. masses --     2.2505                 6.7024                 7.2617
 Frc consts  --     0.2187                 0.8043                 1.4685
 IR Inten    --    16.0465                11.4285                 0.8220
 Raman Activ --     0.4183                 1.7607                 0.4094

                     7                      8                      9
                     A                      A                      A
 Frequencies --   594.2971               707.9918               868.7691
 Red. masses --     9.8026                 4.6581                 2.6742
 Frc consts  --     2.0399                 1.3757                 1.1892
 IR Inten    --     7.9796                 9.3766                94.3415
 Raman Activ --     1.3859                 1.2256                 2.9459

                    10                     11                     12
                     A                      A                      A
 Frequencies --   942.0616               956.1636              1204.8645
 Red. masses --     2.4811                 1.4107                 1.5483
 Frc consts  --     1.2973                 0.7599                 1.3243
 IR Inten    --   157.4194                11.8409                96.8225
 Raman Activ --     2.7795                 0.6263                 2.2624

                    13                     14                     15
                     A                      A                      A
 Frequencies --  1208.6990              1324.6120              1391.4089
 Red. masses --     3.5418                 6.0480                 2.8695
 Frc consts  --     3.0487                 6.2523                 3.2732
 IR Inten    --    26.9311               282.6730               169.7359
 Raman Activ --     5.5057                 2.1732                 0.3610

                    16                     17                     18
                     A                      A                      A
 Frequencies --  1415.3463              1506.6789              1549.4012
 Red. masses --     4.0669                 1.2497                 1.9092
 Frc consts  --     4.7999                 1.6715                 2.7004
 IR Inten    --   179.0436                31.0735                27.1178
 Raman Activ --     1.3999                 4.7931                 0.1685

                    19                     20                     21
                     A                      A                      A
 Frequencies --  1603.2662              1802.5903              3209.3040
 Red. masses --     1.1001                 1.1075                 1.0613
 Frc consts  --     1.6660                 2.1203                 6.4401
 IR Inten    --     4.8220                35.3679                21.7736
 Raman Activ --     4.9687                 1.9117               102.0085

                    22                     23                     24
                     A                      A                      A
 Frequencies --  3253.9438              3742.8407              3826.6201
 Red. masses --     1.1075                 1.0490                 1.0959
 Frc consts  --     6.9091                 8.6582                 9.4549
 IR Inten    --    15.9546                 5.9396                14.9644
 Raman Activ --    51.3081                78.5953                35.5976

 - Thermochemistry -
 -------------------
 Temperature   298.150 Kelvin.  Pressure   1.00000 Atm.
 Atom     1 has atomic number  6 and mass  12.00000

 Molecular mass:    99.02958 amu.
 Principal axes and moments of inertia in atomic units:
                           1         2         3
     Eigenvalues --   331.65936 633.93005 640.26975
           X            0.99998  -0.00561   0.00000
           Y            0.00561   0.99998  -0.00075
           Z            0.00001   0.00075   1.00000
 This molecule is an asymmetric top.
 Rotational symmetry number  1.
 Rotational temperatures (Kelvin)      0.26115     0.13663     0.13528
 Rotational constants (GHZ):           5.44155     2.84691     2.81872
 Zero-point vibrational energy     198693.3 (Joules/Mol)
                                   47.48883 (Kcal/Mol)
 Warning -- explicit consideration of   7 degrees of freedom as
           vibrations may cause significant error
 Vibrational temperatures:    181.54   349.79   428.04   584.30   649.34
          (Kelvin)            842.90   855.06  1018.64  1249.96  1355.41
                             1375.70  1733.53  1739.05  1905.82  2001.92
                             2036.37  2167.77  2229.24  2306.74  2593.52
                             4617.47  4681.69  5385.11  5505.65

 Zero-point correction=                           0.075678 (Hartree/Particle)
 Thermal correction to Energy=                    0.081344
 Thermal correction to Enthalpy=                  0.082288
 Thermal correction to Gibbs Free Energy=         0.046260
 Sum of electronic and zero-point Energies=           -430.922107
 Sum of electronic and thermal Energies=              -430.916441
 Sum of electronic and thermal Enthalpies=            -430.915497
 Sum of electronic and thermal Free Energies=         -430.951525

                     E (Thermal)             CV                S
                      KCal/Mol        Cal/Mol-Kelvin    Cal/Mol-Kelvin
 Total                   51.044             19.453             75.828
 Electronic               0.000              0.000              0.000
 Translational            0.889              2.981             39.689
 Rotational               0.889              2.981             26.401
 Vibrational             49.267             13.491              9.738
 Vibration     1          0.611              1.927              3.004
 Vibration     2          0.659              1.774              1.780
 Vibration     3          0.691              1.678              1.431
 Vibration     4          0.771              1.457              0.940
 Vibration     5          0.810              1.358              0.792
 Vibration     6          0.943              1.062              0.475
 Vibration     7          0.952              1.044              0.460

 Optimization completed.
    -- Stationary point found.
 Normal termination of Gaussian 09 at Fri May 29 10:29:45 2015.
