 Gaussian 09, Revision A.02,
 Gaussian 09:  EM64L-G09RevA.02 11-Jun-2009

 ----------------------------
 # HF/6-311+G(2df,p) Opt Freq
 ----------------------------

 -----
 title
 -----
 Symbolic Z-matrix:
 Charge =  0 Multiplicity = 1

 SCF Done:  E(RHF) =  -1125.06531385     A.U. after   15 cycles
 SCF Done:  E(RHF) =  -1125.11540196     A.U. after   13 cycles
 SCF Done:  E(RHF) =  -1125.17824549     A.U. after   15 cycles
 SCF Done:  E(RHF) =  -1125.19403885     A.U. after   15 cycles
 SCF Done:  E(RHF) =  -1125.19991857     A.U. after   14 cycles
 SCF Done:  E(RHF) =  -1125.20017827     A.U. after   15 cycles
 SCF Done:  E(RHF) =  -1125.19607981     A.U. after   15 cycles
 SCF Done:  E(RHF) =  -1125.20028260     A.U. after   12 cycles
 SCF Done:  E(RHF) =  -1125.20089705     A.U. after   12 cycles
 SCF Done:  E(RHF) =  -1125.20120988     A.U. after   15 cycles
 SCF Done:  E(RHF) =  -1125.20141647     A.U. after   11 cycles
 SCF Done:  E(RHF) =  -1125.20149415     A.U. after   11 cycles
 SCF Done:  E(RHF) =  -1125.20151291     A.U. after   10 cycles
 SCF Done:  E(RHF) =  -1125.20153524     A.U. after    9 cycles
 SCF Done:  E(RHF) =  -1125.20154582     A.U. after    9 cycles
 SCF Done:  E(RHF) =  -1125.20154754     A.U. after    8 cycles
 SCF Done:  E(RHF) =  -1125.20154788     A.U. after    8 cycles
 SCF Done:  E(RHF) =  -1125.20154798     A.U. after    7 cycles
 Optimization completed.
    -- Stationary point found.
 Normal termination of Gaussian 09 at Fri May 29 10:50:00 2015.

 ----------------------------------------------------------------------
 #N Geom=AllCheck Guess=TCheck SCRF=Check GenChk RHF/6-311+G(2df,p) Fre
 q
 ----------------------------------------------------------------------

 title
 -----
 Redundant internal coordinates taken from checkpoint file:
 fiii.chk
 Charge =  0 Multiplicity = 1

                         Standard orientation:
 ---------------------------------------------------------------------
 Center     Atomic      Atomic             Coordinates (Angstroms)
 Number     Number       Type             X           Y           Z
 ---------------------------------------------------------------------
      1          6           0        1.845669   -0.108516    0.002031
      2          9           0        1.540123   -0.905589   -0.981028
      3          9           0        2.509141    0.904207   -0.516759
      4          9           0        2.658593   -0.726876    0.820018
      5          7           0        0.705808    0.282407    0.722967
      6         16           0       -0.523163    1.124439   -0.031086
      7          6           0       -1.804348   -0.153110   -0.003888
      8          9           0       -2.096312   -0.537781    1.211372
      9          9           0       -2.874669    0.379174   -0.539554
     10          9           0       -1.483705   -1.217678   -0.684673
     11          1           0        0.903496    0.542784    1.663358
 ---------------------------------------------------------------------

 SCF Done:  E(RHF) =  -1125.20154798     A.U. after    1 cycles

 The electronic state is 1-A.
 Alpha  occ. eigenvalues --  -92.03637 -26.36466 -26.36180 -26.35961 -26.35821
 Alpha  occ. eigenvalues --  -26.35665 -26.35238 -15.63571 -11.54819 -11.53544
 Alpha  occ. eigenvalues --   -9.03582  -6.71782  -6.71647  -6.71554  -1.77571
 Alpha  occ. eigenvalues --   -1.77404  -1.67036  -1.66988  -1.66506  -1.66093
 Alpha  occ. eigenvalues --   -1.30335  -1.07391  -0.98679  -0.94435  -0.87130
 Alpha  occ. eigenvalues --   -0.86529  -0.86248  -0.85824  -0.85072  -0.80403
 Alpha  occ. eigenvalues --   -0.74284  -0.73722  -0.73598  -0.73386  -0.69829
 Alpha  occ. eigenvalues --   -0.69069  -0.68721  -0.68312  -0.67192  -0.66964
 Alpha  occ. eigenvalues --   -0.66673  -0.62179  -0.58209  -0.46061  -0.42647
 Alpha virt. eigenvalues --    0.06078   0.07456   0.08550   0.09159   0.10815
 Alpha virt. eigenvalues --    0.11341   0.11673   0.12308   0.13018   0.14728
 Alpha virt. eigenvalues --    0.16707   0.17332   0.19132   0.20484   0.22524

 Mulliken atomic charges:
              1
     1  C    1.037834
     2  F   -0.286348
     3  F   -0.302147
     4  F   -0.303571
     5  N   -0.391488
     6  S   -0.053638
     7  C    0.742319
     8  F   -0.255905
     9  F   -0.263886
    10  F   -0.234482
    11  H    0.311311
 Sum of Mulliken atomic charges =   0.00000

 Dipole moment (field-independent basis, Debye):
    X=              0.2717    Y=              1.2883    Z=              1.5584  Tot=              2.0401
 Quadrupole moment (field-independent basis, Debye-Ang):
   XX=            -64.6358   YY=            -60.7563   ZZ=            -58.3939
   XY=              0.2582   XZ=              2.3573   YZ=              1.3202

  Exact polarizability:  58.676  -0.647  46.778   2.523  -0.728  44.816
 Approx polarizability:  48.151  -0.480  44.613   2.193  -0.739  44.495

                     1                      2                      3
                     A                      A                      A
 Frequencies --    41.5730                58.8783                73.3282
 Red. masses --    18.9092                17.3253                17.0530
 Frc consts  --     0.0193                 0.0354                 0.0540
 IR Inten    --     0.1000                 0.7276                 0.4291
 Raman Activ --     0.0145                 0.0310                 0.0675

                     4                      5                      6
                     A                      A                      A
 Frequencies --   180.5351               191.3097               331.0476
 Red. masses --    12.6003                11.6391                13.6833
 Frc consts  --     0.2420                 0.2510                 0.8835
 IR Inten    --     0.6183                 2.5705                 1.7405
 Raman Activ --     0.7209                 0.3935                 2.1518

                     7                      8                      9
                     A                      A                      A
 Frequencies --   352.9367               443.8357               482.3845
 Red. masses --     9.9393                 9.6437                15.7336
 Frc consts  --     0.7295                 1.1193                 2.1571
 IR Inten    --     4.0194                 8.9666                13.0676
 Raman Activ --     0.3541                 1.0025                 1.2778

                    10                     11                     12
                     A                      A                      A
 Frequencies --   510.7429               534.9809               600.2781
 Red. masses --     2.1182                 3.9331                15.8381
 Frc consts  --     0.3256                 0.6632                 3.3625
 IR Inten    --    15.0780                51.5699                 4.1221
 Raman Activ --     0.9412                 2.9427                 1.3812

                    13                     14                     15
                     A                      A                      A
 Frequencies --   601.6292               629.3521               676.7646
 Red. masses --    11.0234                16.3548                16.2508
 Frc consts  --     2.3508                 3.8167                 4.3853
 IR Inten    --    12.3964                 1.4487                14.8055
 Raman Activ --     1.0111                 0.3799                 0.9968

                    16                     17                     18
                     A                      A                      A
 Frequencies --   738.8217               847.2285               919.9109
 Red. masses --    11.3447                17.9189                 7.5440
 Frc consts  --     3.6486                 7.5781                 3.7614
 IR Inten    --    17.9459                10.9845                10.4535
 Raman Activ --     1.0058                 7.2534                 6.7967

                    19                     20                     21
                     A                      A                      A
 Frequencies --  1057.3361              1278.7090              1320.8813
 Red. masses --     6.2614                11.5145                 6.5153
 Frc consts  --     4.1243                11.0927                 6.6975
 IR Inten    --     6.1918               613.6823               234.8477
 Raman Activ --     1.3990                 4.6013                 0.5694

                    22                     23                     24
                     A                      A                      A
 Frequencies --  1344.2185              1353.6822              1360.3096
 Red. masses --     9.9914                 6.1572                11.4622
 Frc consts  --    10.6369                 6.6476                12.4966
 IR Inten    --   105.0029               262.4288               366.0667
 Raman Activ --     2.9673                 2.5686                 0.5405

                    25                     26                     27
                     A                      A                      A
 Frequencies --  1439.5136              1603.5583              3822.7719
 Red. masses --    11.8029                 1.5240                 1.0770
 Frc consts  --    14.4102                 2.3090                 9.2732
 IR Inten    --   528.2894               149.6535                73.1471
 Raman Activ --     1.1263                 0.4712                58.2026

 - Thermochemistry -
 -------------------
 Temperature   298.150 Kelvin.  Pressure   1.00000 Atm.
 Atom     1 has atomic number  6 and mass  12.00000

 Molecular mass:   184.97339 amu.
 Principal axes and moments of inertia in atomic units:
                           1         2         3
     Eigenvalues --   743.919332736.421752848.19412
           X            0.99999  -0.00068   0.00354
           Y            0.00056   0.99935   0.03593
           Z           -0.00356  -0.03592   0.99935
 This molecule is an asymmetric top.
 Rotational symmetry number  1.
 Warning -- assumption of classical behavior for rotation
           may cause significant error
 Rotational temperatures (Kelvin)      0.11643     0.03165     0.03041
 Rotational constants (GHZ):           2.42599     0.65953     0.63364
 Zero-point vibrational energy     136353.5 (Joules/Mol)
                                   32.58926 (Kcal/Mol)
 Warning -- explicit consideration of  13 degrees of freedom as
           vibrations may cause significant error
 Vibrational temperatures:     59.81    84.71   105.50   259.75   275.25
          (Kelvin)            476.30   507.80   638.58   694.04   734.84
                              769.72   863.67   865.61   905.50   973.71
                             1063.00  1218.97  1323.54  1521.27  1839.77
                             1900.45  1934.03  1947.64  1957.18  2071.14
                             2307.16  5500.11

 Zero-point correction=                           0.051934 (Hartree/Particle)
 Thermal correction to Energy=                    0.060941
 Thermal correction to Enthalpy=                  0.061885
 Thermal correction to Gibbs Free Energy=         0.015551
 Sum of electronic and zero-point Energies=          -1125.149614
 Sum of electronic and thermal Energies=             -1125.140607
 Sum of electronic and thermal Enthalpies=           -1125.139663
 Sum of electronic and thermal Free Energies=        -1125.185997

                     E (Thermal)             CV                S
                      KCal/Mol        Cal/Mol-Kelvin    Cal/Mol-Kelvin
 Total                   38.241             30.689             97.517
 Electronic               0.000              0.000              0.000
 Translational            0.889              2.981             41.551
 Rotational               0.889              2.981             30.140
 Vibrational             36.463             24.727             25.826
 Vibration     1          0.594              1.981              5.183
 Vibration     2          0.596              1.974              4.494
 Vibration     3          0.599              1.967              4.062
 Vibration     4          0.629              1.866              2.323
 Vibration     5          0.634              1.852              2.215
 Vibration     6          0.713              1.613              1.255
 Vibration     7          0.729              1.569              1.153
 Vibration     8          0.803              1.374              0.815
 Vibration     9          0.839              1.289              0.704
 Vibration    10          0.866              1.226              0.632
 Vibration    11          0.890              1.173              0.576
 Vibration    12          0.958              1.031              0.449
 Vibration    13          0.960              1.028              0.447

 Optimization completed.
    -- Stationary point found.
 Normal termination of Gaussian 09 at Fri May 29 11:05:03 2015.
