 Gaussian 09, Revision A.02,
 Gaussian 09:  EM64L-G09RevA.02 11-Jun-2009

 ----------------------------
 # HF/6-311+G(2df,p) Opt Freq
 ----------------------------

 -----
 title
 -----
 Symbolic Z-matrix:
 Charge =  0 Multiplicity = 1

 SCF Done:  E(RHF) =  -531.706559560     A.U. after   16 cycles
 SCF Done:  E(RHF) =  -531.750315792     A.U. after   13 cycles
 SCF Done:  E(RHF) =  -531.805306180     A.U. after   13 cycles
 SCF Done:  E(RHF) =  -531.815100671     A.U. after   13 cycles
 SCF Done:  E(RHF) =  -531.817104404     A.U. after   12 cycles
 SCF Done:  E(RHF) =  -531.818138580     A.U. after   12 cycles
 SCF Done:  E(RHF) =  -531.818927006     A.U. after   12 cycles
 SCF Done:  E(RHF) =  -531.818391951     A.U. after   12 cycles
 SCF Done:  E(RHF) =  -531.820163225     A.U. after   12 cycles
 SCF Done:  E(RHF) =  -531.820662285     A.U. after   11 cycles
 SCF Done:  E(RHF) =  -531.820813117     A.U. after   12 cycles
 SCF Done:  E(RHF) =  -531.820972353     A.U. after   11 cycles
 SCF Done:  E(RHF) =  -531.821028686     A.U. after   10 cycles
 SCF Done:  E(RHF) =  -531.821031615     A.U. after   10 cycles
 SCF Done:  E(RHF) =  -531.821031893     A.U. after    8 cycles
 Optimization completed.
    -- Stationary point found.
 Normal termination of Gaussian 09 at Fri May 29 10:19:16 2015.

 ----------------------------------------------------------------------
 #N Geom=AllCheck Guess=TCheck SCRF=Check GenChk RHF/6-311+G(2df,p) Fre
 q
 ----------------------------------------------------------------------

 title
 -----
 Redundant internal coordinates taken from checkpoint file:
 ttttttaadsads.chk
 Charge =  0 Multiplicity = 1

                         Standard orientation:
 ---------------------------------------------------------------------
 Center     Atomic      Atomic             Coordinates (Angstroms)
 Number     Number       Type             X           Y           Z
 ---------------------------------------------------------------------
      1          6           0        1.793883    0.519110   -0.218267
      2          1           0        1.467100    1.553930   -0.131248
      3          1           0        2.779607    0.437624    0.225582
      4          1           0        1.873160    0.273769   -1.269148
      5          7           0        0.910240   -0.428515    0.426797
      6         16           0       -0.625331   -0.673794   -0.189110
      7          6           0       -1.507221    0.875012    0.105436
      8          1           0       -1.071364    1.700590   -0.440599
      9          1           0       -2.517862    0.718425   -0.253297
     10          1           0       -1.545495    1.108565    1.162034
     11          1           0        0.928510   -0.377321    1.421852
 ---------------------------------------------------------------------

 SCF Done:  E(RHF) =  -531.821031893     A.U. after    1 cycles

 The electronic state is 1-A.
 Alpha  occ. eigenvalues --  -91.96407 -15.56699 -11.24869 -11.24189  -8.96251
 Alpha  occ. eigenvalues --   -6.64486  -6.64335  -6.64267  -1.22027  -1.01851
 Alpha  occ. eigenvalues --   -0.92742  -0.82302  -0.66369  -0.61978  -0.59973
 Alpha  occ. eigenvalues --   -0.58174  -0.56622  -0.53241  -0.46250  -0.37677
 Alpha  occ. eigenvalues --   -0.34267
 Alpha virt. eigenvalues --    0.06643   0.08076   0.08565   0.08813   0.11307
 Alpha virt. eigenvalues --    0.11725   0.11989   0.12804   0.13668   0.15164
 Alpha virt. eigenvalues --    0.16668   0.19094   0.22198   0.22712   0.25167

 Mulliken atomic charges:
              1
     1  C   -0.332163
     2  H    0.111490
     3  H    0.125896
     4  H    0.147132
     5  N   -0.186104
     6  S   -0.112224
     7  C   -0.457213
     8  H    0.152320
     9  H    0.157578
    10  H    0.149528
    11  H    0.243760
 Sum of Mulliken atomic charges =   0.00000

 Dipole moment (field-independent basis, Debye):
    X=              0.3110    Y=              2.2066    Z=              0.9459  Tot=              2.4209
 Quadrupole moment (field-independent basis, Debye-Ang):
   XX=            -30.9601   YY=            -35.8547   ZZ=            -32.5715
   XY=             -0.3532   XZ=              0.6985   YZ=             -0.1011

  Exact polarizability:  59.487  -1.537  49.180   0.557   0.296  44.351
 Approx polarizability:  48.883  -1.390  45.097   1.084   0.157  43.431

                     1                      2                      3
                     A                      A                      A
 Frequencies --   141.9818               188.4034               205.9815
 Red. masses --     1.8491                 1.0525                 1.3222
 Frc consts  --     0.0220                 0.0220                 0.0331
 IR Inten    --     0.3587                 0.7833                 1.0932
 Raman Activ --     0.6832                 0.0844                 0.4871

                     4                      5                      6
                     A                      A                      A
 Frequencies --   320.8865               400.8947               635.6178
 Red. masses --     2.3648                 3.4730                 1.6967
 Frc consts  --     0.1435                 0.3289                 0.4039
 IR Inten    --     4.2285                 4.4512               120.2370
 Raman Activ --     2.1761                 1.0654                 4.8108

                     7                      8                      9
                     A                      A                      A
 Frequencies --   752.1046               853.2547              1043.2272
 Red. masses --     4.1669                 2.3307                 1.1951
 Frc consts  --     1.3887                 0.9997                 0.7663
 IR Inten    --     6.7274                 8.0586                 1.7069
 Raman Activ --    22.5526                 5.4786                 0.7156

                    10                     11                     12
                     A                      A                      A
 Frequencies --  1056.1518              1176.6529              1233.7264
 Red. masses --     1.3701                 3.6465                 1.3546
 Frc consts  --     0.9005                 2.9746                 1.2148
 IR Inten    --    13.7600                53.7447                 9.0320
 Raman Activ --     3.2712                 3.7875                 0.7344

                    13                     14                     15
                     A                      A                      A
 Frequencies --  1253.9649              1471.4102              1560.3241
 Red. masses --     1.4395                 1.1822                 1.2167
 Frc consts  --     1.3337                 1.5081                 1.7453
 IR Inten    --     5.3767                 1.4361                 2.4026
 Raman Activ --     3.2197                 1.1300                 0.2855

                    16                     17                     18
                     A                      A                      A
 Frequencies --  1574.4680              1579.8336              1599.6410
 Red. masses --     1.1053                 1.0917                 1.0544
 Frc consts  --     1.6143                 1.6054                 1.5897
 IR Inten    --     6.5984                 4.8780                 4.2328
 Raman Activ --     8.8817                 1.1324                 7.7868

                    19                     20                     21
                     A                      A                      A
 Frequencies --  1611.3813              1633.5754              3130.6003
 Red. masses --     1.0700                 1.0399                 1.0505
 Frc consts  --     1.6369                 1.6351                 6.0661
 IR Inten    --    15.7311                 4.9160                63.3694
 Raman Activ --     5.7934                 6.8034                77.3321

                    22                     23                     24
                     A                      A                      A
 Frequencies --  3167.9038              3200.0818              3242.9093
 Red. masses --     1.0309                 1.0855                 1.1026
 Frc consts  --     6.0956                 6.5492                 6.8320
 IR Inten    --    34.7267                51.0613                16.0995
 Raman Activ --   160.9359               106.4288                83.9923

                    25                     26                     27
                     A                      A                      A
 Frequencies --  3243.3138              3251.5769              3784.1153
 Red. masses --     1.1045                 1.1056                 1.0759
 Frc consts  --     6.8456                 6.8869                 9.0773
 IR Inten    --    25.2050                18.1001                11.6205
 Raman Activ --    55.8193                66.5601                82.2293

 - Thermochemistry -
 -------------------
 Temperature   298.150 Kelvin.  Pressure   1.00000 Atm.
 Atom     1 has atomic number  6 and mass  12.00000

 Molecular mass:    77.02992 amu.
 Principal axes and moments of inertia in atomic units:
                           1         2         3
     Eigenvalues --   165.52639 442.85480 538.98565
           X            0.99973  -0.02002  -0.01193
           Y            0.01978   0.99959  -0.02064
           Z            0.01234   0.02039   0.99972
 This molecule is an asymmetric top.
 Rotational symmetry number  1.
 Rotational temperatures (Kelvin)      0.52326     0.19558     0.16070
 Rotational constants (GHZ):          10.90304     4.07524     3.34840
 Zero-point vibrational energy     259075.2 (Joules/Mol)
                                   61.92045 (Kcal/Mol)
 Warning -- explicit consideration of   5 degrees of freedom as
           vibrations may cause significant error
 Vibrational temperatures:    204.28   271.07   296.36   461.68   576.80
          (Kelvin)            914.51  1082.11  1227.64  1500.97  1519.57
                             1692.94  1775.05  1804.17  2117.03  2244.96
                             2265.31  2273.03  2301.52  2318.42  2350.35
                             4504.23  4557.90  4604.20  4665.82  4666.40
                             4678.29  5444.49

 Zero-point correction=                           0.098677 (Hartree/Particle)
 Thermal correction to Energy=                    0.104432
 Thermal correction to Enthalpy=                  0.105376
 Thermal correction to Gibbs Free Energy=         0.069919
 Sum of electronic and zero-point Energies=           -531.722355
 Sum of electronic and thermal Energies=              -531.716600
 Sum of electronic and thermal Enthalpies=            -531.715655
 Sum of electronic and thermal Free Energies=         -531.751113

                     E (Thermal)             CV                S
                      KCal/Mol        Cal/Mol-Kelvin    Cal/Mol-Kelvin
 Total                   65.532             18.555             74.627
 Electronic               0.000              0.000              0.000
 Translational            0.889              2.981             38.940
 Rotational               0.889              2.981             25.183
 Vibrational             63.755             12.594             10.504
 Vibration     1          0.615              1.911              2.777
 Vibration     2          0.633              1.856              2.243
 Vibration     3          0.640              1.831              2.079
 Vibration     4          0.706              1.634              1.306
 Vibration     5          0.767              1.468              0.959

 Optimization completed.
    -- Stationary point found.
 Normal termination of Gaussian 09 at Fri May 29 10:20:15 2015.
