 Gaussian 09, Revision A.02,
 Gaussian 09:  EM64L-G09RevA.02 11-Jun-2009

 ----------------------------
 # HF/6-311+G(2df,p) Opt Freq
 ----------------------------

 -----
 title
 -----
 Symbolic Z-matrix:
 Charge =  0 Multiplicity = 1

 SCF Done:  E(RHF) =  -391.802010730     A.U. after   12 cycles
 SCF Done:  E(RHF) =  -391.860138374     A.U. after   11 cycles
 SCF Done:  E(RHF) =  -391.937783142     A.U. after   13 cycles
 SCF Done:  E(RHF) =  -391.950237368     A.U. after   12 cycles
 SCF Done:  E(RHF) =  -391.953893258     A.U. after   10 cycles
 SCF Done:  E(RHF) =  -391.954538462     A.U. after   10 cycles
 SCF Done:  E(RHF) =  -391.955340276     A.U. after    9 cycles
 SCF Done:  E(RHF) =  -391.955346259     A.U. after    8 cycles
 SCF Done:  E(RHF) =  -391.955352584     A.U. after    8 cycles
 SCF Done:  E(RHF) =  -391.955356757     A.U. after    9 cycles
 SCF Done:  E(RHF) =  -391.956820839     A.U. after   10 cycles
 SCF Done:  E(RHF) =  -391.957210352     A.U. after   10 cycles
 SCF Done:  E(RHF) =  -391.958153438     A.U. after   10 cycles
 SCF Done:  E(RHF) =  -391.959090280     A.U. after   11 cycles
 SCF Done:  E(RHF) =  -391.959939733     A.U. after   12 cycles
 SCF Done:  E(RHF) =  -391.960254132     A.U. after   12 cycles
 SCF Done:  E(RHF) =  -391.960395637     A.U. after   10 cycles
 SCF Done:  E(RHF) =  -391.960407761     A.U. after   13 cycles
 SCF Done:  E(RHF) =  -391.960408959     A.U. after   13 cycles
 Optimization completed.
    -- Stationary point found.
 Normal termination of Gaussian 09 at Fri May 29 11:05:00 2015.

 ----------------------------------------------------------------------
 #N Geom=AllCheck Guess=TCheck SCRF=Check GenChk RHF/6-311+G(2df,p) Fre
 q
 ----------------------------------------------------------------------

 title
 -----
 Redundant internal coordinates taken from checkpoint file:
 fsadshlala.chk
 Charge =  0 Multiplicity = 1

                         Standard orientation:
 ---------------------------------------------------------------------
 Center     Atomic      Atomic             Coordinates (Angstroms)
 Number     Number       Type             X           Y           Z
 ---------------------------------------------------------------------
      1          6           0       -0.006014    0.000189   -0.016557
      2          9           0       -0.432549   -0.002549    1.238736
      3          9           0       -0.518510    1.065421   -0.580467
      4          9           0       -0.515433   -1.064827   -0.583557
      5          7           0        1.379897    0.001929   -0.150769
      6          1           0        1.788580   -0.820945    0.239176
      7          1           0        1.786649    0.823912    0.243137
 ---------------------------------------------------------------------

 SCF Done:  E(RHF) =  -391.960408959     A.U. after    1 cycles

 The electronic state is 1-A.
 Alpha  occ. eigenvalues --  -26.34083 -26.34077 -26.33402 -15.58833 -11.52469
 Alpha  occ. eigenvalues --   -1.75429  -1.65008  -1.64040  -1.25432  -0.95972
 Alpha  occ. eigenvalues --   -0.85043  -0.84389  -0.82445  -0.73399  -0.71740
 Alpha  occ. eigenvalues --   -0.69055  -0.66547  -0.65852  -0.64926  -0.63157
 Alpha  occ. eigenvalues --   -0.47779
 Alpha virt. eigenvalues --    0.06716   0.10359   0.10554   0.11205   0.15737
 Alpha virt. eigenvalues --    0.17488   0.19611   0.26045   0.26776   0.29705
 Alpha virt. eigenvalues --    0.33776   0.34035   0.36858   0.39935   0.40077

 Mulliken atomic charges:
              1
     1  C    0.957513
     2  F   -0.309671
     3  F   -0.302770
     4  F   -0.302782
     5  N   -0.583874
     6  H    0.270834
     7  H    0.270749
 Sum of Mulliken atomic charges =   0.00000

 Dipole moment (field-independent basis, Debye):
    X=              2.3065    Y=              0.0007    Z=              1.0898  Tot=              2.5510
 Quadrupole moment (field-independent basis, Debye-Ang):
   XX=            -23.7790   YY=            -26.1353   ZZ=            -29.3947
   XY=             -0.0036   XZ=              2.5926   YZ=              0.0108

  Exact polarizability:  22.245  -0.001  21.659   0.051   0.001  20.914
 Approx polarizability:  18.589  -0.003  19.747   0.203   0.002  18.796

                     1                      2                      3
                     A                      A                      A
 Frequencies --   240.5453               432.6121               488.2820
 Red. masses --     1.1233                 5.0382                 4.4990
 Frc consts  --     0.0383                 0.5555                 0.6320
 IR Inten    --    40.9459                19.6887                 2.6861
 Raman Activ --     0.2561                 0.6251                 0.1426

                     4                      5                      6
                     A                      A                      A
 Frequencies --   622.6542               629.0196               686.9156
 Red. masses --     6.3722                 4.7742                10.4713
 Frc consts  --     1.4556                 1.1130                 2.9111
 IR Inten    --     5.0066                27.1528                13.8239
 Raman Activ --     0.4884                 0.9628                 1.0281

                     7                      8                      9
                     A                      A                      A
 Frequencies --   868.8394               967.7766              1165.7627
 Red. masses --     1.6812                10.0892                 1.8926
 Frc consts  --     0.7477                 5.5675                 1.5154
 IR Inten    --   134.6361                 7.1465               115.4913
 Raman Activ --     0.2124                 6.8528                 3.1039

                    10                     11                     12
                     A                      A                      A
 Frequencies --  1293.3017              1461.0126              1503.5776
 Red. masses --    10.1189                 7.5448                 2.9616
 Frc consts  --     9.9721                 9.4887                 3.9449
 IR Inten    --   471.6225               346.8405               247.7816
 Raman Activ --     2.0978                 1.0183                 0.5767

                    13                     14                     15
                     A                      A                      A
 Frequencies --  1785.5632              3757.9768              3849.2310
 Red. masses --     1.1491                 1.0493                 1.0970
 Frc consts  --     2.1585                 8.7310                 9.5769
 IR Inten    --    92.4413                27.5115                40.2747
 Raman Activ --     1.6443                76.0358                31.8721

 - Thermochemistry -
 -------------------
 Temperature   298.150 Kelvin.  Pressure   1.00000 Atm.
 Atom     1 has atomic number  6 and mass  12.00000

 Molecular mass:    85.01393 amu.
 Principal axes and moments of inertia in atomic units:
                           1         2         3
     Eigenvalues --   309.87441 317.75392 325.49340
           X            0.98187   0.00200   0.18956
           Y           -0.00251   0.99999   0.00246
           Z           -0.18956  -0.00289   0.98187
 This molecule is an asymmetric top.
 Rotational symmetry number  1.
 Rotational temperatures (Kelvin)      0.27951     0.27258     0.26610
 Rotational constants (GHZ):           5.82411     5.67968     5.54463
 Zero-point vibrational energy     118149.6 (Joules/Mol)
                                   28.23843 (Kcal/Mol)
 Warning -- explicit consideration of   3 degrees of freedom as
           vibrations may cause significant error
 Vibrational temperatures:    346.09   622.43   702.53   895.86   905.02
          (Kelvin)            988.32  1250.06  1392.41  1677.27  1860.77
                             2102.07  2163.31  2569.02  5406.88  5538.18

 Zero-point correction=                           0.045001 (Hartree/Particle)
 Thermal correction to Energy=                    0.049401
 Thermal correction to Enthalpy=                  0.050345
 Thermal correction to Gibbs Free Energy=         0.017536
 Sum of electronic and zero-point Energies=           -391.915408
 Sum of electronic and thermal Energies=              -391.911008
 Sum of electronic and thermal Enthalpies=            -391.910064
 Sum of electronic and thermal Free Energies=         -391.942873

                     E (Thermal)             CV                S
                      KCal/Mol        Cal/Mol-Kelvin    Cal/Mol-Kelvin
 Total                   31.000             14.749             69.052
 Electronic               0.000              0.000              0.000
 Translational            0.889              2.981             39.234
 Rotational               0.889              2.981             24.975
 Vibrational             29.222              8.787              4.843
 Vibration     1          0.658              1.778              1.799
 Vibration     2          0.794              1.399              0.850
 Vibration     3          0.844              1.276              0.688

 Optimization completed.
    -- Stationary point found.
 Normal termination of Gaussian 09 at Fri May 29 11:06:00 2015.
