 Gaussian 09, Revision A.02,
 Gaussian 09:  EM64L-G09RevA.02 11-Jun-2009

 ----------------------------
 # HF/6-311+G(2df,p) Opt Freq
 ----------------------------

 -----
 title
 -----
 Symbolic Z-matrix:
 Charge =  0 Multiplicity = 1

 SCF Done:  E(RHF) =  -908.691800129     A.U. after   17 cycles
 SCF Done:  E(RHF) =  -908.740435666     A.U. after   14 cycles
 SCF Done:  E(RHF) =  -908.801095824     A.U. after   14 cycles
 SCF Done:  E(RHF) =  -908.811205353     A.U. after   14 cycles
 SCF Done:  E(RHF) =  -908.813304554     A.U. after   13 cycles
 SCF Done:  E(RHF) =  -908.812407724     A.U. after   15 cycles
 SCF Done:  E(RHF) =  -908.813992016     A.U. after   14 cycles
 SCF Done:  E(RHF) =  -908.814571590     A.U. after   12 cycles
 SCF Done:  E(RHF) =  -908.815028979     A.U. after   14 cycles
 SCF Done:  E(RHF) =  -908.816062876     A.U. after   16 cycles
 SCF Done:  E(RHF) =  -908.816463645     A.U. after   14 cycles
 SCF Done:  E(RHF) =  -908.816510476     A.U. after   14 cycles
 SCF Done:  E(RHF) =  -908.816637119     A.U. after   14 cycles
 SCF Done:  E(RHF) =  -908.816685310     A.U. after   12 cycles
 SCF Done:  E(RHF) =  -908.816688981     A.U. after   10 cycles
 SCF Done:  E(RHF) =  -908.816689574     A.U. after    9 cycles
 SCF Done:  E(RHF) =  -908.816689607     A.U. after    8 cycles
 Optimization completed.
    -- Stationary point found.
 Normal termination of Gaussian 09 at Fri May 29 11:44:31 2015.

 ----------------------------------------------------------------------
 #N Geom=AllCheck Guess=TCheck SCRF=Check GenChk RHF/6-311+G(2df,p) Fre
 q
 ----------------------------------------------------------------------

 title
 -----
 Redundant internal coordinates taken from checkpoint file:
 oooo.chk
 Charge =  0 Multiplicity = 1

                         Standard orientation:
 ---------------------------------------------------------------------
 Center     Atomic      Atomic             Coordinates (Angstroms)
 Number     Number       Type             X           Y           Z
 ---------------------------------------------------------------------
      1          6           0       -3.088920   -0.702479   -0.781275
      2          8           0       -2.203892    0.319118   -0.782988
      3          6           0       -1.629809    0.346803    0.413141
      4          6           0       -2.110838   -0.620636    1.205932
      5          6           0       -3.092823   -1.308551    0.404502
      6          1           0       -3.621983   -0.865655   -1.690457
      7          1           0       -1.814275   -0.833034    2.210471
      8          1           0       -3.695417   -2.144358    0.689487
      9          6           0        1.669741    0.333107   -0.126968
     10          8           0        1.423488   -0.855054   -0.714904
     11          6           0        2.423931   -1.673551   -0.396708
     12          6           0        3.327970   -1.056070    0.373767
     13          6           0        2.824592    0.274279    0.553289
     14          1           0        4.228559   -1.476613    0.766359
     15          1           0        3.264897    1.073820    1.109374
     16          1           0        2.367545   -2.667528   -0.783617
     17          7           0       -0.724236    1.367920    0.645524
     18         16           0        0.571483    1.661830   -0.395026
     19          1           0       -0.503233    1.478717    1.609185
 ---------------------------------------------------------------------

 SCF Done:  E(RHF) =  -908.816689607     A.U. after    1 cycles

 The electronic state is 1-A.
 Alpha  occ. eigenvalues --  -91.99377 -20.63172 -20.61734 -15.59733 -11.32165
 Alpha  occ. eigenvalues --  -11.30504 -11.29551 -11.27204 -11.24281 -11.23288
 Alpha  occ. eigenvalues --  -11.22203 -11.21298  -8.99174  -6.67403  -6.67248
 Alpha  occ. eigenvalues --   -6.67175  -1.48765  -1.48002  -1.25207  -1.10430
 Alpha  occ. eigenvalues --   -1.08737  -1.05682  -0.99803  -0.92396  -0.83054
 Alpha  occ. eigenvalues --   -0.82812  -0.78210  -0.76937  -0.74809  -0.73075
 Alpha  occ. eigenvalues --   -0.66714  -0.65212  -0.64711  -0.63514  -0.60172
 Alpha  occ. eigenvalues --   -0.58321  -0.57852  -0.56257  -0.56083  -0.54406
 Alpha  occ. eigenvalues --   -0.53785  -0.44187  -0.41056  -0.39657  -0.38198
 Alpha  occ. eigenvalues --   -0.33560  -0.29755
 Alpha virt. eigenvalues --    0.05631   0.07016   0.07089   0.07736   0.08402
 Alpha virt. eigenvalues --    0.08999   0.09453   0.09613   0.10418   0.11567
 Alpha virt. eigenvalues --    0.11892   0.12322   0.12718   0.13630   0.14074

 Mulliken atomic charges:
              1
     1  C   -0.064142
     2  O   -0.229890
     3  C    0.217587
     4  C   -0.154972
     5  C   -0.195068
     6  H    0.164709
     7  H    0.137241
     8  H    0.144446
     9  C    0.300814
    10  O   -0.098537
    11  C   -0.061844
    12  C   -0.213887
    13  C   -0.275667
    14  H    0.151761
    15  H    0.163949
    16  H    0.174105
    17  N   -0.268410
    18  S   -0.184336
    19  H    0.292141
 Sum of Mulliken atomic charges =   0.00000

 Dipole moment (field-independent basis, Debye):
    X=              1.5173    Y=             -1.8507    Z=              2.0176  Tot=              3.1301
 Quadrupole moment (field-independent basis, Debye-Ang):
   XX=            -69.2809   YY=            -74.4336   ZZ=            -73.1296
   XY=              1.4063   XZ=              3.0742   YZ=              3.0601

  Exact polarizability: 138.634   2.197 113.101   7.411  -0.550  97.327
 Approx polarizability: 112.095   2.651 109.693   7.251  -1.033 104.051

                     1                      2                      3
                     A                      A                      A
 Frequencies --    34.6653                39.8907                54.8436
 Red. masses --     5.6134                 4.6264                 5.0853
 Frc consts  --     0.0040                 0.0043                 0.0090
 IR Inten    --     0.1505                 0.9549                 0.4124
 Raman Activ --     2.7817                 3.5685                 1.9380

                     4                      5                      6
                     A                      A                      A
 Frequencies --   136.5411               160.8326               293.9631
 Red. masses --     5.3070                 6.9228                 5.8374
 Frc consts  --     0.0583                 0.1055                 0.2972
 IR Inten    --     0.1884                 1.7300                 3.2645
 Raman Activ --     2.3863                 1.8448                 1.1235

                     7                      8                      9
                     A                      A                      A
 Frequencies --   325.2065               418.7324               456.2768
 Red. masses --     6.5881                 4.5890                 4.5789
 Frc consts  --     0.4105                 0.4741                 0.5616
 IR Inten    --     1.7450                23.2665                 3.9677
 Raman Activ --     0.4615                 2.1979                 4.9692

                    10                     11                     12
                     A                      A                      A
 Frequencies --   519.4202               583.9519               656.2419
 Red. masses --     5.3629                 2.2860                 2.8350
 Frc consts  --     0.8525                 0.4593                 0.7193
 IR Inten    --     6.1037                91.7344                17.1884
 Raman Activ --     4.8483                13.1535                 1.2617

                    13                     14                     15
                     A                      A                      A
 Frequencies --   659.5908               729.9198               750.9943
 Red. masses --     2.7534                 3.8852                 4.4149
 Frc consts  --     0.7058                 1.2196                 1.4671
 IR Inten    --     9.6226                 6.9597                21.0272
 Raman Activ --     0.3611                 1.5528                 2.3177

                    16                     17                     18
                     A                      A                      A
 Frequencies --   797.5892               835.3652               866.5055
 Red. masses --     2.5516                 1.3392                 1.2409
 Frc consts  --     0.9564                 0.5506                 0.5489
 IR Inten    --     1.7054               106.7409                75.1684
 Raman Activ --     0.3268                 3.8170                 0.8989

                    19                     20                     21
                     A                      A                      A
 Frequencies --   889.5152               928.5484               969.8160
 Red. masses --     1.8369                 4.5301                 5.5115
 Frc consts  --     0.8563                 2.3013                 3.0542
 IR Inten    --    16.1856                27.9822                 7.6740
 Raman Activ --     3.1786                29.3467                 5.5346

                    22                     23                     24
                     A                      A                      A
 Frequencies --   971.2283               973.9103               998.4760
 Red. masses --     5.9285                 1.4177                 1.3692
 Frc consts  --     3.2949                 0.7923                 0.8043
 IR Inten    --     5.1973                 2.8272                 0.0495
 Raman Activ --     3.9600                 1.9785                 4.0749

                    25                     26                     27
                     A                      A                      A
 Frequencies --  1008.5387              1022.9748              1062.2628
 Red. masses --     4.4293                 1.4288                 2.8866
 Frc consts  --     2.6544                 0.8810                 1.9191
 IR Inten    --    17.6257                 1.4641                35.4126
 Raman Activ --     4.4198                 3.1084                 2.7279

                    28                     29                     30
                     A                      A                      A
 Frequencies --  1087.0246              1088.6493              1184.9905
 Red. masses --     1.5562                 1.5198                 3.5275
 Frc consts  --     1.0834                 1.0612                 2.9184
 IR Inten    --    31.5434                27.5837                21.2234
 Raman Activ --     6.0265                 8.9900                13.6496

                    31                     32                     33
                     A                      A                      A
 Frequencies --  1190.8127              1227.2449              1269.4262
 Red. masses --     2.1741                 5.5338                 1.8358
 Frc consts  --     1.8164                 4.9106                 1.7430
 IR Inten    --     4.7511                37.1756                 5.2894
 Raman Activ --    11.7436                 7.6758                 5.2550

                    34                     35                     36
                     A                      A                      A
 Frequencies --  1282.5568              1342.7597              1346.0288
 Red. masses --     2.4713                 1.4222                 1.5723
 Frc consts  --     2.3951                 1.5108                 1.6784
 IR Inten    --    13.3676                 5.2036                 5.1289
 Raman Activ --     9.8026                12.0897                14.5826

                    37                     38                     39
                     A                      A                      A
 Frequencies --  1385.2301              1496.0847              1525.4024
 Red. masses --     5.0154                 1.4106                 2.4387
 Frc consts  --     5.6702                 1.8602                 3.3433
 IR Inten    --    48.9772                 7.0223                 3.7779
 Raman Activ --    13.9837                 3.0513                28.3683

                    40                     41                     42
                     A                      A                      A
 Frequencies --  1585.1179              1625.1303              1703.2765
 Red. masses --     2.2533                 4.8029                 4.5095
 Frc consts  --     3.3357                 7.4736                 7.7082
 IR Inten    --    48.4605                25.9355               100.6030
 Raman Activ --    21.6103               184.6061               159.1565

                    43                     44                     45
                     A                      A                      A
 Frequencies --  1743.8980              1773.6398              3389.5680
 Red. masses --     5.0500                 5.7004                 1.0932
 Frc consts  --     9.0487                10.5654                 7.4001
 IR Inten    --     3.9478               180.7112                 9.9192
 Raman Activ --    14.3046                60.3847                71.3651

                    46                     47                     48
                     A                      A                      A
 Frequencies --  3394.0262              3402.3865              3407.3178
 Red. masses --     1.0922                 1.0993                 1.0990
 Frc consts  --     7.4126                 7.4976                 7.5176
 IR Inten    --     2.9361                 0.5411                 0.1855
 Raman Activ --    84.0385                64.5784                50.8973

                    49                     50                     51
                     A                      A                      A
 Frequencies --  3426.8723              3439.4382              3823.3066
 Red. masses --     1.1083                 1.1061                 1.0762
 Frc consts  --     7.6681                 7.7095                 9.2686
 IR Inten    --     0.9771                 0.4455                37.0547
 Raman Activ --   122.6419               100.7354                58.1940

 - Thermochemistry -
 -------------------
 Temperature   298.150 Kelvin.  Pressure   1.00000 Atm.
 Atom     1 has atomic number  6 and mass  12.00000

 Molecular mass:   181.01975 amu.
 Principal axes and moments of inertia in atomic units:
                           1         2         3
     Eigenvalues --  1094.550323279.471733815.32489
           X            0.99998   0.00441   0.00496
           Y           -0.00450   0.99985   0.01688
           Z           -0.00489  -0.01690   0.99985
 This molecule is an asymmetric top.
 Rotational symmetry number  1.
 Warning -- assumption of classical behavior for rotation
           may cause significant error
 Rotational temperatures (Kelvin)      0.07913     0.02641     0.02270
 Rotational constants (GHZ):           1.64884     0.55031     0.47302
 Zero-point vibrational energy     390496.9 (Joules/Mol)
                                   93.33101 (Kcal/Mol)
 Warning -- explicit consideration of  11 degrees of freedom as
           vibrations may cause significant error
 Vibrational temperatures:     49.88    57.39    78.91   196.45   231.40
          (Kelvin)            422.95   467.90   602.46   656.48   747.33
                              840.18   944.18   949.00  1050.19  1080.51
                             1147.55  1201.90  1246.71  1279.81  1335.97
                             1395.35  1397.38  1401.24  1436.58  1451.06
                             1471.83  1528.36  1563.98  1566.32  1704.93
                             1713.31  1765.73  1826.42  1845.31  1931.93
                             1936.63  1993.03  2152.53  2194.71  2280.63
                             2338.20  2450.63  2509.08  2551.87  4876.83
                             4883.24  4895.27  4902.36  4930.50  4948.58
                             5500.88

 Zero-point correction=                           0.148732 (Hartree/Particle)
 Thermal correction to Energy=                    0.158356
 Thermal correction to Enthalpy=                  0.159300
 Thermal correction to Gibbs Free Energy=         0.110854
 Sum of electronic and zero-point Energies=           -908.667957
 Sum of electronic and thermal Energies=              -908.658334
 Sum of electronic and thermal Enthalpies=            -908.657390
 Sum of electronic and thermal Free Energies=         -908.705836

                     E (Thermal)             CV                S
                      KCal/Mol        Cal/Mol-Kelvin    Cal/Mol-Kelvin
 Total                   99.370             35.039            101.962
 Electronic               0.000              0.000              0.000
 Translational            0.889              2.981             41.487
 Rotational               0.889              2.981             30.994
 Vibrational             97.592             29.078             29.482
 Vibration     1          0.594              1.983              5.543
 Vibration     2          0.594              1.981              5.265
 Vibration     3          0.596              1.976              4.635
 Vibration     4          0.614              1.917              2.852
 Vibration     5          0.622              1.890              2.540
 Vibration     6          0.689              1.685              1.451
 Vibration     7          0.709              1.625              1.284
 Vibration     8          0.782              1.430              0.896
 Vibration     9          0.815              1.347              0.777
 Vibration    10          0.874              1.207              0.611
 Vibration    11          0.941              1.066              0.478

 Optimization completed.
    -- Stationary point found.
 Normal termination of Gaussian 09 at Fri May 29 12:31:27 2015.
