 Gaussian 09, Revision A.02,
 Gaussian 09:  EM64L-G09RevA.02 11-Jun-2009

 ----------------------------
 # HF/6-311+G(2df,p) Opt Freq
 ----------------------------

 -----
 title
 -----
 Symbolic Z-matrix:
 Charge =  0 Multiplicity = 1

 SCF Done:  E(RHF) =  -453.611515119     A.U. after   15 cycles
 SCF Done:  E(RHF) =  -453.661405886     A.U. after   13 cycles
 SCF Done:  E(RHF) =  -453.725016738     A.U. after   14 cycles
 SCF Done:  E(RHF) =  -453.731960911     A.U. after   13 cycles
 SCF Done:  E(RHF) =  -453.734650688     A.U. after   13 cycles
 SCF Done:  E(RHF) =  -453.737358556     A.U. after   12 cycles
 SCF Done:  E(RHF) =  -453.736781348     A.U. after   14 cycles
 SCF Done:  E(RHF) =  -453.737838967     A.U. after   13 cycles
 SCF Done:  E(RHF) =  -453.737889187     A.U. after   14 cycles
 SCF Done:  E(RHF) =  -453.738034021     A.U. after   13 cycles
 SCF Done:  E(RHF) =  -453.738043975     A.U. after   13 cycles
 Optimization completed.
    -- Stationary point found.
 Normal termination of Gaussian 09 at Fri May 29 10:12:30 2015.

 ----------------------------------------------------------------------
 #N Geom=AllCheck Guess=TCheck SCRF=Check GenChk RHF/6-311+G(2df,p) Fre
 q
 ----------------------------------------------------------------------

 title
 -----
 Redundant internal coordinates taken from checkpoint file:
 foooo.chk
 Charge =  0 Multiplicity = 1

                         Standard orientation:
 ---------------------------------------------------------------------
 Center     Atomic      Atomic             Coordinates (Angstroms)
 Number     Number       Type             X           Y           Z
 ---------------------------------------------------------------------
      1          7           0        1.079240   -0.076068   -0.000073
      2          1           0        1.492394    0.298107    0.825504
      3         16           0       -0.602789   -0.080593   -0.000029
      4          1           0       -0.893720    1.224319    0.000879
      5          1           0        1.491277    0.299536   -0.825412
 ---------------------------------------------------------------------

 SCF Done:  E(RHF) =  -453.738043975     A.U. after    1 cycles

 The electronic state is 1-A.
 Alpha  occ. eigenvalues --  -91.97752 -15.57690  -8.97655  -6.65886  -6.65747
 Alpha  occ. eigenvalues --   -6.65658  -1.20394  -0.92083  -0.69329  -0.63855
 Alpha  occ. eigenvalues --   -0.50996  -0.41705  -0.36854
 Alpha virt. eigenvalues --    0.06393   0.08091   0.09941   0.10074   0.15752
 Alpha virt. eigenvalues --    0.18498   0.18648   0.21490   0.22457   0.28263
 Alpha virt. eigenvalues --    0.28317   0.32106   0.41805   0.44077   0.47862

 Mulliken atomic charges:
              1
     1  N   -0.400646
     2  H    0.251906
     3  S   -0.201965
     4  H    0.098849
     5  H    0.251856
 Sum of Mulliken atomic charges =   0.00000

 Dipole moment (field-independent basis, Debye):
    X=              1.1075    Y=              2.0626    Z=              0.0013  Tot=              2.3411
 Quadrupole moment (field-independent basis, Debye-Ang):
   XX=            -18.4678   YY=            -20.3120   ZZ=            -20.4362
   XY=              0.9291   XZ=              0.0025   YZ=             -0.0008

  Exact polarizability:  31.268  -1.971  24.874   0.000   0.001  24.301
 Approx polarizability:  26.409  -1.936  23.524   0.001   0.001  22.492

                     1                      2                      3
                     A                      A                      A
 Frequencies --   561.4087               666.2405               925.6292
 Red. masses --     1.0554                 1.6328                 2.6497
 Frc consts  --     0.1960                 0.4270                 1.3376
 IR Inten    --     1.6141               171.6140                22.7583
 Raman Activ --     1.2968                 2.5732                14.8087

                     4                      5                      6
                     A                      A                      A
 Frequencies --  1119.4949              1192.8660              1754.3351
 Red. masses --     1.1343                 1.1079                 1.0859
 Frc consts  --     0.8376                 0.9288                 1.9690
 IR Inten    --    30.7134                 2.8472                14.1805
 Raman Activ --    11.3581                 1.5376                 3.9406

                     7                      8                      9
                     A                      A                      A
 Frequencies --  2757.9138              3754.5497              3858.5038
 Red. masses --     1.0392                 1.0459                 1.1008
 Frc consts  --     4.6570                 8.6866                 9.6558
 IR Inten    --    33.1558                 6.3317                35.8709
 Raman Activ --   180.4549               104.1199                56.2048

 - Thermochemistry -
 -------------------
 Temperature   298.150 Kelvin.  Pressure   1.00000 Atm.
 Atom     1 has atomic number  7 and mass  14.00307

 Molecular mass:    48.99862 amu.
 Principal axes and moments of inertia in atomic units:
                           1         2         3
     Eigenvalues --    11.73366 123.22397 125.14844
           X            0.99999  -0.00396   0.00001
           Y            0.00396   0.99999  -0.00008
           Z           -0.00001   0.00008   1.00000
 This molecule is an asymmetric top.
 Rotational symmetry number  1.
 Rotational temperatures (Kelvin)      7.38166     0.70290     0.69209
 Rotational constants (GHZ):         153.80894    14.64602    14.42080
 Zero-point vibrational energy      99235.9 (Joules/Mol)
                                   23.71794 (Kcal/Mol)
 Warning -- explicit consideration of   1 degrees of freedom as
           vibrations may cause significant error
 Vibrational temperatures:    807.74   958.57  1331.77  1610.70  1716.27
          (Kelvin)           2524.09  3968.02  5401.95  5551.52

 Zero-point correction=                           0.037797 (Hartree/Particle)
 Thermal correction to Energy=                    0.041030
 Thermal correction to Enthalpy=                  0.041974
 Thermal correction to Gibbs Free Energy=         0.014168
 Sum of electronic and zero-point Energies=           -453.700247
 Sum of electronic and thermal Energies=              -453.697014
 Sum of electronic and thermal Enthalpies=            -453.696070
 Sum of electronic and thermal Free Energies=         -453.723876

                     E (Thermal)             CV                S
                      KCal/Mol        Cal/Mol-Kelvin    Cal/Mol-Kelvin
 Total                   25.747              8.941             58.523
 Electronic               0.000              0.000              0.000
 Translational            0.889              2.981             37.592
 Rotational               0.889              2.981             19.831
 Vibrational             23.969              2.980              1.100
 Vibration     1          0.917              1.115              0.521

 Optimization completed.
    -- Stationary point found.
 Normal termination of Gaussian 09 at Fri May 29 10:12:41 2015.
