 Gaussian 09, Revision A.02,
 Gaussian 09:  EM64L-G09RevA.02 11-Jun-2009

 ----------------------------
 # HF/6-311+G(2df,p) Opt Freq
 ----------------------------

 -----
 title
 -----
 Symbolic Z-matrix:
 Charge =  0 Multiplicity = 1

 SCF Done:  E(RHF) =  -912.831650825     A.U. after   19 cycles
 SCF Done:  E(RHF) =  -912.876940787     A.U. after   19 cycles
 SCF Done:  E(RHF) =  -912.934624168     A.U. after   17 cycles
 SCF Done:  E(RHF) =  -912.944655419     A.U. after   18 cycles
 SCF Done:  E(RHF) =  -912.947182212     A.U. after   17 cycles
 SCF Done:  E(RHF) =  -912.948446130     A.U. after   19 cycles
 SCF Done:  E(RHF) =  -912.950145037     A.U. after   18 cycles
 SCF Done:  E(RHF) =  -912.952123642     A.U. after   17 cycles
 SCF Done:  E(RHF) =  -912.952364636     A.U. after   18 cycles
 SCF Done:  E(RHF) =  -912.952718637     A.U. after   16 cycles
 SCF Done:  E(RHF) =  -912.952851886     A.U. after   16 cycles
 SCF Done:  E(RHF) =  -912.952880779     A.U. after   15 cycles
 SCF Done:  E(RHF) =  -912.952885151     A.U. after   14 cycles
 SCF Done:  E(RHF) =  -912.952885818     A.U. after   13 cycles
 SCF Done:  E(RHF) =  -912.952885940     A.U. after   10 cycles
 SCF Done:  E(RHF) =  -912.952885969     A.U. after   10 cycles
 Optimization completed.
    -- Stationary point found.
 Normal termination of Gaussian 09 at Fri May 29 13:36:54 2015.

 ----------------------------------------------------------------------
 #N Geom=AllCheck Guess=TCheck SCRF=Check GenChk RHF/6-311+G(2df,p) Fre
 q
 ----------------------------------------------------------------------

 title
 -----
 Redundant internal coordinates taken from checkpoint file:
 pookoposads.chk
 Charge =  0 Multiplicity = 1

                         Standard orientation:
 ---------------------------------------------------------------------
 Center     Atomic      Atomic             Coordinates (Angstroms)
 Number     Number       Type             X           Y           Z
 ---------------------------------------------------------------------
      1          6           0       -2.166987    0.282607   -0.975483
      2          6           0       -1.675485    0.581043    0.287449
      3          6           0       -3.174843   -0.647531   -1.122318
      4          1           0       -3.545484   -0.865140   -2.107617
      5          6           0       -2.216332   -0.065459    1.388564
      6          6           0       -3.718028   -1.289899   -0.024821
      7          1           0       -1.840646    0.152309    2.372660
      8          1           0       -4.504412   -2.010603   -0.147826
      9          6           0       -3.232399   -0.987427    1.230954
     10          1           0       -3.637990   -1.476009    2.098135
     11          1           0       -1.766378    0.782382   -1.835663
     12          7           0       -0.688215    1.559131    0.482700
     13         16           0        0.596127    1.822523   -0.564026
     14          6           0        1.711577    0.462936   -0.260751
     15          6           0        2.716500    0.594024    0.685528
     16          6           0        1.606802   -0.715404   -0.983195
     17          1           0        2.812282    1.512814    1.233578
     18          1           0        0.839144   -0.817767   -1.725736
     19          6           0        3.595992   -0.445380    0.918671
     20          6           0        2.485302   -1.755745   -0.748413
     21          1           0        4.372567   -0.335190    1.652868
     22          1           0        2.395287   -2.667409   -1.309523
     23          6           0        3.478517   -1.621754    0.202836
     24          1           0        4.162910   -2.430450    0.382434
     25          1           0       -0.471491    1.728717    1.438066
 ---------------------------------------------------------------------

 SCF Done:  E(RHF) =  -912.952885969     A.U. after    1 cycles

 The electronic state is 1-A.
 Alpha  occ. eigenvalues --  -91.97995 -15.58477 -11.27554 -11.25822 -11.24278
 Alpha  occ. eigenvalues --  -11.24217 -11.24135 -11.23794 -11.23711 -11.23127
 Alpha  occ. eigenvalues --  -11.23049 -11.22366 -11.21971 -11.21830  -8.97818
 Alpha  occ. eigenvalues --   -6.66050  -6.65900  -6.65838  -1.25337  -1.17237
 Alpha  occ. eigenvalues --   -1.14417  -1.05238  -1.03065  -1.01974  -1.00473
 Alpha  occ. eigenvalues --   -0.92067  -0.84258  -0.83779  -0.82599  -0.79676
 Alpha  occ. eigenvalues --   -0.71990  -0.71497  -0.67489  -0.65509  -0.64150
 Alpha  occ. eigenvalues --   -0.63013  -0.60718  -0.60059  -0.59762  -0.58761
 Alpha  occ. eigenvalues --   -0.57035  -0.53347  -0.51815  -0.51275  -0.50784
 Alpha  occ. eigenvalues --   -0.49476  -0.48481  -0.41990  -0.36581  -0.35102
 Alpha  occ. eigenvalues --   -0.34857  -0.33961  -0.30234
 Alpha virt. eigenvalues --    0.05709   0.06888   0.06936   0.07582   0.08338
 Alpha virt. eigenvalues --    0.08764   0.08969   0.09244   0.09380   0.10253
 Alpha virt. eigenvalues --    0.10693   0.11117   0.11502   0.11639   0.12294

 Mulliken atomic charges:
              1
     1  C    0.766813
     2  C    0.332021
     3  C   -0.162129
     4  H    0.137690
     5  C   -1.255596
     6  C   -0.302424
     7  H    0.119874
     8  H    0.135528
     9  C   -0.080352
    10  H    0.136996
    11  H    0.159198
    12  N   -0.193255
    13  S   -0.364438
    14  C    1.701230
    15  C   -0.474613
    16  C   -0.695764
    17  H    0.162543
    18  H    0.174571
    19  C   -0.358176
    20  C   -0.583105
    21  H    0.143309
    22  H    0.143593
    23  C   -0.092507
    24  H    0.143639
    25  H    0.305353
 Sum of Mulliken atomic charges =   0.00000

 Dipole moment (field-independent basis, Debye):
    X=              1.1036    Y=             -1.7044    Z=              1.2249  Tot=              2.3714
 Quadrupole moment (field-independent basis, Debye-Ang):
   XX=            -86.3813   YY=            -91.3391   ZZ=            -83.5582
   XY=              0.5187   XZ=              3.8249   YZ=              4.2450

  Exact polarizability: 182.659   5.617 148.136  12.163   4.112 140.040
 Approx polarizability: 152.923   6.943 152.424  12.432   5.534 153.055

                     1                      2                      3
                     A                      A                      A
 Frequencies --    15.6889                23.3734                48.1142
 Red. masses --     3.8885                 4.6130                 4.5617
 Frc consts  --     0.0006                 0.0015                 0.0062
 IR Inten    --     0.0053                 0.5014                 0.0313
 Raman Activ --     5.7809                 6.7821                 3.1051

                     4                      5                      6
                     A                      A                      A
 Frequencies --   121.7950               168.5530               230.2648
 Red. masses --     4.9585                 5.2380                 4.5507
 Frc consts  --     0.0433                 0.0877                 0.1422
 IR Inten    --     0.2081                 1.7933                 0.6347
 Raman Activ --     2.2800                 1.3962                 3.4535

                     7                      8                      9
                     A                      A                      A
 Frequencies --   317.5896               338.3814               411.0553
 Red. masses --     5.7711                 4.2985                 6.6289
 Frc consts  --     0.3430                 0.2900                 0.6599
 IR Inten    --     1.5763                 3.4436                 0.5440
 Raman Activ --     0.2206                 2.0213                 5.1152

                    10                     11                     12
                     A                      A                      A
 Frequencies --   443.2036               454.3268               456.9712
 Red. masses --     6.5617                 2.8781                 2.9852
 Frc consts  --     0.7594                 0.3500                 0.3673
 IR Inten    --     1.3055                 0.1077                 0.8081
 Raman Activ --     3.8966                 0.0800                 0.1290

                    13                     14                     15
                     A                      A                      A
 Frequencies --   530.4495               557.1213               594.9107
 Red. masses --     1.9702                 3.1025                 2.9436
 Frc consts  --     0.3266                 0.5674                 0.6138
 IR Inten    --    84.0636                 8.8564                30.6147
 Raman Activ --     0.8860                 0.4206                 1.0993

                    16                     17                     18
                     A                      A                      A
 Frequencies --   640.1653               673.9282               675.0262
 Red. masses --     3.2945                 6.4024                 6.2079
 Frc consts  --     0.7955                 1.7132                 1.6666
 IR Inten    --    37.2582                 0.2775                 0.9466
 Raman Activ --     1.8795                 4.9019                 3.2889

                    19                     20                     21
                     A                      A                      A
 Frequencies --   761.5337               768.9150               770.2531
 Red. masses --     4.5735                 1.9964                 2.1802
 Frc consts  --     1.5627                 0.6954                 0.7621
 IR Inten    --     4.8886                34.9630                45.4287
 Raman Activ --     7.2636                 0.4346                 2.5896

                    22                     23                     24
                     A                      A                      A
 Frequencies --   835.5855               848.8601               858.5246
 Red. masses --     2.0243                 1.6809                 2.7280
 Frc consts  --     0.8328                 0.7136                 1.1847
 IR Inten    --    49.3918                55.2551                 8.4813
 Raman Activ --     5.5813                 0.6003                12.6730

                    25                     26                     27
                     A                      A                      A
 Frequencies --   930.0733               951.9309               977.0786
 Red. masses --     1.2676                 1.2441                 4.8480
 Frc consts  --     0.6460                 0.6642                 2.7269
 IR Inten    --     1.3458                 0.0732                61.1294
 Raman Activ --     1.8310                 1.5500                 5.5793

                    28                     29                     30
                     A                      A                      A
 Frequencies --  1006.5579              1052.1910              1078.3682
 Red. masses --     1.5201                 1.3961                 6.0624
 Frc consts  --     0.9074                 0.9107                 4.1537
 IR Inten    --    12.3476                 1.0167                 4.4172
 Raman Activ --     0.3225                 0.7845                54.1331

                    31                     32                     33
                     A                      A                      A
 Frequencies --  1084.4988              1093.3813              1106.6724
 Red. masses --     5.9208                 1.3656                 1.3954
 Frc consts  --     4.1029                 0.9619                 1.0069
 IR Inten    --     0.9678                 0.3398                 0.0559
 Raman Activ --    51.7387                 0.6925                 0.7555

                    34                     35                     36
                     A                      A                      A
 Frequencies --  1108.8578              1113.4834              1119.3366
 Red. masses --     1.3202                 2.9477                 2.1275
 Frc consts  --     0.9564                 2.1532                 1.5705
 IR Inten    --     0.7298                 2.8164                 6.5863
 Raman Activ --     0.4768                 9.2701                20.0704

                    37                     38                     39
                     A                      A                      A
 Frequencies --  1123.1637              1160.6867              1176.4049
 Red. masses --     1.3431                 1.9174                 1.8666
 Frc consts  --     0.9983                 1.5219                 1.5220
 IR Inten    --     0.0188                 0.1875                11.9087
 Raman Activ --     0.2459                 0.9612                 1.6709

                    40                     41                     42
                     A                      A                      A
 Frequencies --  1188.8807              1191.9389              1196.0906
 Red. masses --     2.2391                 2.5077                 2.9040
 Frc consts  --     1.8647                 2.0991                 2.4478
 IR Inten    --     0.1114                 6.2142                 3.6428
 Raman Activ --     3.5708                 4.5241                11.6016

                    43                     44                     45
                     A                      A                      A
 Frequencies --  1287.4629              1288.6667              1311.4661
 Red. masses --     1.1540                 1.1545                 1.4629
 Frc consts  --     1.1270                 1.1296                 1.4825
 IR Inten    --    11.7924                 4.2538                 4.7763
 Raman Activ --     4.1458                 3.9594                 2.9512

                    46                     47                     48
                     A                      A                      A
 Frequencies --  1314.2344              1354.1313              1448.3579
 Red. masses --     1.4243                 3.1468                 1.3751
 Frc consts  --     1.4494                 3.3997                 1.6996
 IR Inten    --     1.1191               146.0368                 8.1563
 Raman Activ --     0.9963                40.2653                 2.9313

                    49                     50                     51
                     A                      A                      A
 Frequencies --  1450.6621              1545.5001              1585.8283
 Red. masses --     1.3437                 1.3469                 1.9904
 Frc consts  --     1.6660                 1.8955                 2.9492
 IR Inten    --     1.6198                16.1913                10.5618
 Raman Activ --     0.3424                 4.0113                 0.7565

                    52                     53                     54
                     A                      A                      A
 Frequencies --  1633.5708              1636.7232              1651.1878
 Red. masses --     1.8480                 2.0159                 2.1670
 Frc consts  --     2.9055                 3.1818                 3.4810
 IR Inten    --    15.4443                 9.0832                92.6919
 Raman Activ --     3.6497                 1.3186                 1.1911

                    55                     56                     57
                     A                      A                      A
 Frequencies --  1750.9598              1766.4684              1768.8739
 Red. masses --     4.9854                 5.0871                 4.9333
 Frc consts  --     9.0054                 9.3527                 9.0946
 IR Inten    --     0.3491                 0.9070                 8.7309
 Raman Activ --     9.2479                36.9508                 9.8239

                    58                     59                     60
                     A                      A                      A
 Frequencies --  1779.9580              3304.0878              3313.3999
 Red. masses --     5.1890                 1.0873                 1.0864
 Frc consts  --     9.6861                 6.9938                 7.0272
 IR Inten    --   115.4312                10.6602                 0.1291
 Raman Activ --    66.6785                28.7035                32.1133

                    61                     62                     63
                     A                      A                      A
 Frequencies --  3314.5690              3324.3034              3325.7136
 Red. masses --     1.0887                 1.0900                 1.0935
 Frc consts  --     7.0469                 7.0969                 7.1261
 IR Inten    --     1.2622                 4.7719                27.2316
 Raman Activ --    96.5093                97.4260                66.2938

                    64                     65                     66
                     A                      A                      A
 Frequencies --  3334.9277              3342.6303              3343.9102
 Red. masses --     1.0937                 1.0969                 1.0971
 Frc consts  --     7.1670                 7.2209                 7.2280
 IR Inten    --    17.4515                26.7613                19.7287
 Raman Activ --    48.7885               137.3532               164.8809

                    67                     68                     69
                     A                      A                      A
 Frequencies --  3354.0033              3354.2562              3822.9985
 Red. masses --     1.0962                 1.0947                 1.0763
 Frc consts  --     7.2657                 7.2568                 9.2678
 IR Inten    --     5.2532                 2.6094                24.5923
 Raman Activ --   130.3657               110.5441                54.9333

 - Thermochemistry -
 -------------------
 Temperature   298.150 Kelvin.  Pressure   1.00000 Atm.
 Atom     1 has atomic number  6 and mass  12.00000

 Molecular mass:   201.06122 amu.
 Principal axes and moments of inertia in atomic units:
                           1         2         3
     Eigenvalues --  1569.313364854.919475376.72111
           X            0.99998   0.00047   0.00596
           Y           -0.00070   0.99927   0.03826
           Z           -0.00594  -0.03826   0.99925
 This molecule is an asymmetric top.
 Rotational symmetry number  1.
 Warning -- assumption of classical behavior for rotation
           may cause significant error
 Rotational temperatures (Kelvin)      0.05519     0.01784     0.01611
 Rotational constants (GHZ):           1.15002     0.37173     0.33566
 Zero-point vibrational energy     555743.4 (Joules/Mol)
                                  132.82585 (Kcal/Mol)
 Warning -- explicit consideration of  15 degrees of freedom as
           vibrations may cause significant error
 Vibrational temperatures:     22.57    33.63    69.23   175.24   242.51
          (Kelvin)            331.30   456.94   486.85   591.42   637.67
                              653.67   657.48   763.20   801.57   855.94
                              921.05   969.63   971.21  1095.68  1106.30
                             1108.22  1202.22  1221.32  1235.22  1338.17
                             1369.61  1405.80  1448.21  1513.87  1551.53
                             1560.35  1573.13  1592.25  1595.40  1602.05
                             1610.47  1615.98  1669.97  1692.58  1710.53
                             1714.93  1720.91  1852.37  1854.10  1886.90
                             1890.89  1948.29  2083.86  2087.18  2223.63
                             2281.65  2350.34  2354.88  2375.69  2519.24
                             2541.55  2545.01  2560.96  4753.84  4767.24
                             4768.92  4782.93  4784.95  4798.21  4809.29
                             4811.13  4825.66  4826.02  5500.44

 Zero-point correction=                           0.211671 (Hartree/Particle)
 Thermal correction to Energy=                    0.222796
 Thermal correction to Enthalpy=                  0.223740
 Thermal correction to Gibbs Free Energy=         0.171119
 Sum of electronic and zero-point Energies=           -912.741214
 Sum of electronic and thermal Energies=              -912.730090
 Sum of electronic and thermal Enthalpies=            -912.729146
 Sum of electronic and thermal Free Energies=         -912.781767

                     E (Thermal)             CV                S
                      KCal/Mol        Cal/Mol-Kelvin    Cal/Mol-Kelvin
 Total                  139.807             42.733            110.750
 Electronic               0.000              0.000              0.000
 Translational            0.889              2.981             41.800
 Rotational               0.889              2.981             32.083
 Vibrational            138.029             36.772             36.868
 Vibration     1          0.593              1.986              7.116
 Vibration     2          0.593              1.985              6.325
 Vibration     3          0.595              1.978              4.893
 Vibration     4          0.609              1.931              3.072
 Vibration     5          0.625              1.881              2.452
 Vibration     6          0.652              1.795              1.877
 Vibration     7          0.704              1.640              1.322
 Vibration     8          0.719              1.599              1.220
 Vibration     9          0.775              1.446              0.923
 Vibration    10          0.803              1.376              0.817
 Vibration    11          0.813              1.351              0.783
 Vibration    12          0.815              1.345              0.775
 Vibration    13          0.885              1.183              0.586
 Vibration    14          0.913              1.124              0.530
 Vibration    15          0.953              1.043              0.458

 Normal termination of Gaussian 09 at Fri May 29 15:20:02 2015.
