 Gaussian 09, Revision A.02,
 Gaussian 09:  EM64L-G09RevA.02 11-Jun-2009

 ----------------------------
 # HF/6-311+G(2df,p) Opt Freq
 ----------------------------

 -----
 title
 -----
 Symbolic Z-matrix:
 Charge =  0 Multiplicity = 1

 SCF Done:  E(RHF) =  -56.0720039854     A.U. after   10 cycles
 SCF Done:  E(RHF) =  -56.1293164374     A.U. after   10 cycles
 SCF Done:  E(RHF) =  -56.2031182901     A.U. after   10 cycles
 SCF Done:  E(RHF) =  -56.2085574863     A.U. after    9 cycles
 SCF Done:  E(RHF) =  -56.2089675541     A.U. after   11 cycles
 SCF Done:  E(RHF) =  -56.2089784097     A.U. after    8 cycles
 SCF Done:  E(RHF) =  -56.2089860508     A.U. after    8 cycles
 Optimization completed.
    -- Stationary point found.
 Normal termination of Gaussian 09 at Fri May 29 11:04:39 2015.

 ----------------------------------------------------------------------
 #N Geom=AllCheck Guess=TCheck SCRF=Check GenChk RHF/6-311+G(2df,p) Fre
 q
 ----------------------------------------------------------------------

 title
 -----
 Redundant internal coordinates taken from checkpoint file:
 fsasadsaddsh.chk
 Charge =  0 Multiplicity = 1

                         Standard orientation:
 ---------------------------------------------------------------------
 Center     Atomic      Atomic             Coordinates (Angstroms)
 Number     Number       Type             X           Y           Z
 ---------------------------------------------------------------------
      1          7           0        0.000000    0.000000    0.000001
      2          1           0        0.000000    0.854289    0.493199
      3          1           0        0.000000   -0.854289    0.493199
      4          1           0        0.000000    0.000000   -0.986406
 ---------------------------------------------------------------------

 SCF Done:  E(RHF) =  -56.2089860508     A.U. after    1 cycles

 The electronic state is 1-A1.
 Alpha  occ. eigenvalues --  -15.52266  -1.13301  -0.65825  -0.65825  -0.39233
 Alpha virt. eigenvalues --    0.11818   0.14756   0.14756   0.19692   0.28580
 Alpha virt. eigenvalues --    0.29036   0.29036   0.65442   0.65443   0.72840
 Alpha virt. eigenvalues --    0.93782   0.93783   1.00644   1.06097   1.13723

 Mulliken atomic charges:
              1
     1  N   -0.825561
     2  H    0.275189
     3  H    0.275189
     4  H    0.275184
 Sum of Mulliken atomic charges =   0.00000

 Dipole moment (field-independent basis, Debye):
    X=              0.0000    Y=              0.0000    Z=              0.0000  Tot=              0.0000
 Quadrupole moment (field-independent basis, Debye-Ang):
   XX=             -9.9795   YY=             -5.6749   ZZ=             -5.6752
   XY=              0.0000   XZ=              0.0000   YZ=              0.0000

  Exact polarizability:  11.942   0.000   9.571   0.000   0.000   9.570
 Approx polarizability:   8.990   0.000   8.229   0.000   0.000   8.229

 ******    1 imaginary frequencies (negative Signs) ******

                     1                      2                      3
                    B1                     B2                     A1
 Frequencies --  -861.7010              1699.5027              1699.5205
 Red. masses --     1.2067                 1.0920                 1.0920
 Frc consts  --     0.5279                 1.8583                 1.8584
 IR Inten    --   475.0700                40.4959                40.5066
 Raman Activ --     0.0000                 0.8107                 0.8110

                     4                      5                      6
                    A1                     B2                     A1
 Frequencies --  3809.1468              4022.7971              4023.0159
 Red. masses --     1.0078                 1.1047                 1.1047
 Frc consts  --     8.6157                10.5329                10.5340
 IR Inten    --     0.0000                55.3130                55.3017
 Raman Activ --   109.3559                22.5388                22.5405

 - Thermochemistry -
 -------------------
 Temperature   298.150 Kelvin.  Pressure   1.00000 Atm.
 Atom     1 has atomic number  7 and mass  14.00307

 Molecular mass:    17.02655 amu.
 Principal axes and moments of inertia in atomic units:
                           1         2         3
     Eigenvalues --     5.25271   5.25318  10.50589
           X            0.00000   0.00000   1.00000
           Y            1.00000   0.00000   0.00000
           Z            0.00000   1.00000   0.00000
 This molecule is an asymmetric top.
 Rotational symmetry number  2.
 Rotational temperatures (Kelvin)     16.48937    16.48788     8.24431
 Rotational constants (GHZ):         343.58308   343.55211   171.78380
    1 imaginary frequencies ignored.
 Zero-point vibrational energy      91239.1 (Joules/Mol)
                                   21.80666 (Kcal/Mol)
 Vibrational temperatures:   2445.20  2445.23  5480.51  5787.90  5788.22
          (Kelvin)

 Zero-point correction=                           0.034751 (Hartree/Particle)
 Thermal correction to Energy=                    0.037588
 Thermal correction to Enthalpy=                  0.038532
 Thermal correction to Gibbs Free Energy=         0.016434
 Sum of electronic and zero-point Energies=            -56.174235
 Sum of electronic and thermal Energies=               -56.171398
 Sum of electronic and thermal Enthalpies=             -56.170454
 Sum of electronic and thermal Free Energies=          -56.192552

                     E (Thermal)             CV                S
                      KCal/Mol        Cal/Mol-Kelvin    Cal/Mol-Kelvin
 Total                   23.587              6.035             46.510
 Electronic               0.000              0.000              0.000
 Translational            0.889              2.981             34.441
 Rotational               0.889              2.981             12.059
 Vibrational             21.809              0.073              0.010

 Optimization completed.
    -- Stationary point found.
 Normal termination of Gaussian 09 at Fri May 29 11:04:43 2015.
