 Gaussian 09, Revision A.02,
 Gaussian 09:  EM64L-G09RevA.02 11-Jun-2009

 ----------------------------
 # HF/6-311+G(2df,p) Opt Freq
 ----------------------------

 -----
 title
 -----
 Symbolic Z-matrix:
 Charge =  0 Multiplicity = 1

 SCF Done:  E(RHF) =  -1203.18281962     A.U. after   15 cycles
 SCF Done:  E(RHF) =  -1203.22860384     A.U. after   13 cycles
 SCF Done:  E(RHF) =  -1203.28915550     A.U. after   13 cycles
 SCF Done:  E(RHF) =  -1203.29995952     A.U. after   12 cycles
 SCF Done:  E(RHF) =  -1203.30146350     A.U. after   12 cycles
 SCF Done:  E(RHF) =  -1203.30182105     A.U. after   12 cycles
 SCF Done:  E(RHF) =  -1203.30218525     A.U. after   14 cycles
 SCF Done:  E(RHF) =  -1203.30275544     A.U. after   14 cycles
 SCF Done:  E(RHF) =  -1203.30298552     A.U. after   12 cycles
 SCF Done:  E(RHF) =  -1203.30322965     A.U. after   11 cycles
 SCF Done:  E(RHF) =  -1203.30349923     A.U. after   12 cycles
 SCF Done:  E(RHF) =  -1203.30357254     A.U. after   11 cycles
 SCF Done:  E(RHF) =  -1203.30359882     A.U. after   11 cycles
 SCF Done:  E(RHF) =  -1203.30360699     A.U. after   10 cycles
 SCF Done:  E(RHF) =  -1203.30360829     A.U. after    9 cycles
 SCF Done:  E(RHF) =  -1203.30360891     A.U. after    8 cycles
 Optimization completed.
    -- Stationary point found.
 Normal termination of Gaussian 09 at Fri May 29 11:10:10 2015.

 ----------------------------------------------------------------------
 #N Geom=AllCheck Guess=TCheck SCRF=Check GenChk RHF/6-311+G(2df,p) Fre
 q
 ----------------------------------------------------------------------

 title
 -----
 Redundant internal coordinates taken from checkpoint file:
 dasaassdadsads.chk
 Charge =  0 Multiplicity = 1

                         Standard orientation:
 ---------------------------------------------------------------------
 Center     Atomic      Atomic             Coordinates (Angstroms)
 Number     Number       Type             X           Y           Z
 ---------------------------------------------------------------------
      1          6           0       -2.899598   -0.154139   -0.001812
      2          9           0       -2.454977   -1.289854   -0.492170
      3          9           0       -3.944555   -0.436361    0.750991
      4          9           0       -3.328644    0.569635   -1.009693
      5          6           0       -1.855711    0.571634    0.812942
      6          1           0       -1.623177   -0.020594    1.685576
      7          1           0       -2.288266    1.511278    1.132857
      8         16           0       -0.341162    0.967650   -0.078825
      9          7           0        0.493702   -0.482690    0.023435
     10          6           0        1.719433   -0.570517    0.766057
     11          1           0        1.647521    0.018361    1.669360
     12          1           0        1.903628   -1.601434    1.045677
     13          6           0        2.942399   -0.103191    0.004096
     14          9           0        3.112138   -0.802532   -1.100082
     15          9           0        2.864908    1.160411   -0.344145
     16          9           0        4.023411   -0.251270    0.738156
     17          1           0        0.473303   -1.024168   -0.811520
 ---------------------------------------------------------------------

 SCF Done:  E(RHF) =  -1203.30360891     A.U. after    1 cycles

 The electronic state is 1-A.
 Alpha  occ. eigenvalues --  -92.00154 -26.34604 -26.34572 -26.34441 -26.34260
 Alpha  occ. eigenvalues --  -26.34200 -26.34126 -15.60079 -11.50180 -11.49907
 Alpha  occ. eigenvalues --  -11.30035 -11.28731  -9.00005  -6.68220  -6.68092
 Alpha  occ. eigenvalues --   -6.68015  -1.75543  -1.75289  -1.65101  -1.64979
 Alpha  occ. eigenvalues --   -1.64766  -1.64660  -1.26475  -1.10824  -1.04979
 Alpha  occ. eigenvalues --   -0.96795  -0.93386  -0.88862  -0.84440  -0.84267
 Alpha  occ. eigenvalues --   -0.84175  -0.83882  -0.81008  -0.78437  -0.72926
 Alpha  occ. eigenvalues --   -0.72524  -0.72264  -0.72010  -0.69410  -0.67917
 Alpha  occ. eigenvalues --   -0.67479  -0.67272  -0.66607  -0.65634  -0.65293
 Alpha  occ. eigenvalues --   -0.63621  -0.61850  -0.59784  -0.58472  -0.56367
 Alpha  occ. eigenvalues --   -0.52641  -0.40693  -0.38106
 Alpha virt. eigenvalues --    0.05854   0.07378   0.08084   0.08418   0.10059
 Alpha virt. eigenvalues --    0.10209   0.10359   0.11282   0.11578   0.13028
 Alpha virt. eigenvalues --    0.13636   0.13823   0.14456   0.14838   0.17010

 Mulliken atomic charges:
              1
     1  C    0.748794
     2  F   -0.251841
     3  F   -0.284518
     4  F   -0.256315
     5  C   -0.297071
     6  H    0.185783
     7  H    0.186950
     8  S   -0.225042
     9  N   -0.187061
    10  C   -0.123269
    11  H    0.176139
    12  H    0.160659
    13  C    0.734304
    14  F   -0.293717
    15  F   -0.257331
    16  F   -0.294537
    17  H    0.278075
 Sum of Mulliken atomic charges =   0.00000

 Dipole moment (field-independent basis, Debye):
    X=              0.0155    Y=             -0.5619    Z=              2.3383  Tot=              2.4049
 Quadrupole moment (field-independent basis, Debye-Ang):
   XX=            -87.3568   YY=            -73.1377   ZZ=            -71.4659
   XY=             -5.1154   XZ=             -1.0193   YZ=              1.4552

  Exact polarizability:  87.188  -4.918  66.667  -1.438  -0.788  63.552
 Approx polarizability:  67.200  -3.374  65.510  -1.097  -0.282  63.227

                     1                      2                      3
                     A                      A                      A
 Frequencies --    35.8600                42.8971                49.2563
 Red. masses --    11.2650                15.5774                12.0144
 Frc consts  --     0.0085                 0.0169                 0.0172
 IR Inten    --     0.8825                 0.0901                 1.5621
 Raman Activ --     0.0897                 0.0226                 0.0419

                     4                      5                      6
                     A                      A                      A
 Frequencies --    76.8097                89.2484               173.3415
 Red. masses --     7.8654                 8.2639                 6.8544
 Frc consts  --     0.0273                 0.0388                 0.1213
 IR Inten    --     0.9448                 0.2262                 1.2076
 Raman Activ --     0.2675                 0.3184                 1.0494

                     7                      8                      9
                     A                      A                      A
 Frequencies --   206.8209               279.9491               319.8412
 Red. masses --     9.0372                14.5376                 5.7171
 Frc consts  --     0.2278                 0.6713                 0.3446
 IR Inten    --     4.8042                 2.9387                 2.5771
 Raman Activ --     0.2555                 0.9284                 0.2547

                    10                     11                     12
                     A                      A                      A
 Frequencies --   386.4109               404.9150               410.7256
 Red. masses --     3.4571                 5.4338                 2.4379
 Frc consts  --     0.3041                 0.5249                 0.2423
 IR Inten    --     1.1785                 9.6832                 2.1865
 Raman Activ --     0.9032                 0.2408                 1.1048

                    13                     14                     15
                     A                      A                      A
 Frequencies --   489.3535               560.6949               582.3941
 Red. masses --     5.0801                 2.1884                 9.7917
 Frc consts  --     0.7168                 0.4054                 1.9568
 IR Inten    --    14.9213                30.2998                 5.3904
 Raman Activ --     1.0463                 2.0666                 2.4038

                    16                     17                     18
                     A                      A                      A
 Frequencies --   584.0841               586.4563               616.6141
 Red. masses --     8.7024                 8.4386                 3.1103
 Frc consts  --     1.7492                 1.7100                 0.6968
 IR Inten    --     2.2813                 2.7930                47.6919
 Raman Activ --     0.3230                 0.7817                 0.8934

                    19                     20                     21
                     A                      A                      A
 Frequencies --   700.6468               717.6231               822.1191
 Red. masses --     8.5347                 6.8415                 4.5433
 Frc consts  --     2.4685                 2.0758                 1.8092
 IR Inten    --    36.6553                18.9799                 9.4487
 Raman Activ --     1.3568                 2.0596                14.3018

                    22                     23                     24
                     A                      A                      A
 Frequencies --   871.8223               911.9628               925.0203
 Red. masses --     3.8986                 7.6535                 5.4456
 Frc consts  --     1.7459                 3.7503                 2.7454
 IR Inten    --    19.8472                15.0615                 5.7715
 Raman Activ --     3.7358                 4.0310                 3.9120

                    25                     26                     27
                     A                      A                      A
 Frequencies --   967.2556              1069.8535              1216.8847
 Red. masses --     2.1852                 2.1487                 1.7549
 Frc consts  --     1.2045                 1.4490                 1.5311
 IR Inten    --     3.2494                43.7838               135.2921
 Raman Activ --     1.1202                 2.5573                 3.7500

                    28                     29                     30
                     A                      A                      A
 Frequencies --  1227.4044              1288.1923              1293.6452
 Red. masses --     3.1440                 3.6783                 1.8977
 Frc consts  --     2.7907                 3.5963                 1.8711
 IR Inten    --    82.9725               297.1887               120.8911
 Raman Activ --     0.9434                 1.3834                 1.4674

                    31                     32                     33
                     A                      A                      A
 Frequencies --  1328.0307              1396.9900              1415.1419
 Red. masses --     5.5844                 3.4130                 3.4890
 Frc consts  --     5.8028                 3.9243                 4.1167
 IR Inten    --   327.1090               113.0109               208.6730
 Raman Activ --     2.4166                 3.0748                 1.6052

                    34                     35                     36
                     A                      A                      A
 Frequencies --  1431.9288              1444.8363              1471.9862
 Red. masses --     2.5175                 2.0262                 2.3552
 Frc consts  --     3.0413                 2.4921                 3.0067
 IR Inten    --   171.3964               166.8886               117.2964
 Raman Activ --     1.5879                 1.2665                 2.8606

                    37                     38                     39
                     A                      A                      A
 Frequencies --  1540.7483              1567.6616              1593.1569
 Red. masses --     1.6298                 1.1888                 1.0897
 Frc consts  --     2.2795                 1.7213                 1.6296
 IR Inten    --    26.0670                25.9201                 7.3461
 Raman Activ --     0.7630                 4.9053                 5.9462

                    40                     41                     42
                     A                      A                      A
 Frequencies --  1612.3221              3205.5868              3218.8800
 Red. masses --     1.3664                 1.0656                 1.0616
 Frc consts  --     2.0928                 6.4515                 6.4808
 IR Inten    --     7.0687                25.5787                 6.3208
 Raman Activ --     1.0907               112.0116               102.7388

                    43                     44                     45
                     A                      A                      A
 Frequencies --  3268.9336              3281.9234              3812.7821
 Red. masses --     1.1028                 1.1054                 1.0763
 Frc consts  --     6.9429                 7.0151                 9.2188
 IR Inten    --     5.3425                 2.0497                37.5044
 Raman Activ --    36.8483                44.8673                57.0721

 - Thermochemistry -
 -------------------
 Temperature   298.150 Kelvin.  Pressure   1.00000 Atm.
 Atom     1 has atomic number  6 and mass  12.00000

 Molecular mass:   213.00469 amu.
 Principal axes and moments of inertia in atomic units:
                           1         2         3
     Eigenvalues --   791.841975947.300236067.84794
           X            0.99998  -0.00669  -0.00093
           Y            0.00671   0.99967   0.02466
           Z            0.00076  -0.02467   0.99970
 This molecule is an asymmetric top.
 Rotational symmetry number  1.
 Warning -- assumption of classical behavior for rotation
           may cause significant error
 Rotational temperatures (Kelvin)      0.10938     0.01456     0.01427
 Rotational constants (GHZ):           2.27917     0.30346     0.29743
 Zero-point vibrational energy     296069.8 (Joules/Mol)
                                   70.76239 (Kcal/Mol)
 Warning -- explicit consideration of  18 degrees of freedom as
           vibrations may cause significant error
 Vibrational temperatures:     51.59    61.72    70.87   110.51   128.41
          (Kelvin)            249.40   297.57   402.78   460.18   555.96
                              582.58   590.94   704.07   806.71   837.93
                              840.37   843.78   887.17  1008.07  1032.50
                             1182.84  1254.36  1312.11  1330.90  1391.66
                             1539.28  1750.82  1765.96  1853.42  1861.26
                             1910.74  2009.95  2036.07  2060.22  2078.79
                             2117.86  2216.79  2255.51  2292.19  2319.77
                             4612.12  4631.24  4703.26  4721.95  5485.74

 Zero-point correction=                           0.112767 (Hartree/Particle)
 Thermal correction to Energy=                    0.124313
 Thermal correction to Enthalpy=                  0.125257
 Thermal correction to Gibbs Free Energy=         0.072189
 Sum of electronic and zero-point Energies=          -1203.190842
 Sum of electronic and thermal Energies=             -1203.179296
 Sum of electronic and thermal Enthalpies=           -1203.178352
 Sum of electronic and thermal Free Energies=        -1203.231420

                     E (Thermal)             CV                S
                      KCal/Mol        Cal/Mol-Kelvin    Cal/Mol-Kelvin
 Total                   78.007             39.839            111.691
 Electronic               0.000              0.000              0.000
 Translational            0.889              2.981             41.972
 Rotational               0.889              2.981             31.725
 Vibrational             76.230             33.878             37.994
 Vibration     1          0.594              1.982              5.476
 Vibration     2          0.595              1.980              5.121
 Vibration     3          0.595              1.978              4.847
 Vibration     4          0.599              1.965              3.971
 Vibration     5          0.602              1.957              3.676
 Vibration     6          0.627              1.875              2.399
 Vibration     7          0.641              1.830              2.072
 Vibration     8          0.680              1.711              1.534
 Vibration     9          0.706              1.636              1.311
 Vibration    10          0.755              1.499              1.014
 Vibration    11          0.770              1.460              0.945
 Vibration    12          0.775              1.447              0.924
 Vibration    13          0.845              1.274              0.685
 Vibration    14          0.916              1.116              0.522
 Vibration    15          0.939              1.069              0.481
 Vibration    16          0.941              1.066              0.478
 Vibration    17          0.944              1.061              0.474
 Vibration    18          0.976              0.997              0.422

 Optimization completed.
    -- Stationary point found.
 Normal termination of Gaussian 09 at Fri May 29 11:39:50 2015.
