 Gaussian 09, Revision A.02,
 Gaussian 09:  EM64L-G09RevA.02 11-Jun-2009

 ----------------------------
 # HF/6-311+G(2df,p) Opt Freq
 ----------------------------

 -----
 title
 -----
 Symbolic Z-matrix:
 Charge =  0 Multiplicity = 1

 SCF Done:  E(RHF) =  -95.1150424721     A.U. after   12 cycles
 SCF Done:  E(RHF) =  -95.1671183130     A.U. after   10 cycles
 SCF Done:  E(RHF) =  -95.2328367154     A.U. after   12 cycles
 SCF Done:  E(RHF) =  -95.2416884504     A.U. after   10 cycles
 SCF Done:  E(RHF) =  -95.2417649959     A.U. after    9 cycles
 SCF Done:  E(RHF) =  -95.2422658903     A.U. after    9 cycles
 SCF Done:  E(RHF) =  -95.2423844214     A.U. after   10 cycles
 SCF Done:  E(RHF) =  -95.2427078149     A.U. after   10 cycles
 SCF Done:  E(RHF) =  -95.2109482567     A.U. after   12 cycles
 SCF Done:  E(RHF) =  -95.2428099481     A.U. after   12 cycles
 SCF Done:  E(RHF) =  -95.2402554605     A.U. after   10 cycles
 SCF Done:  E(RHF) =  -95.2448111943     A.U. after   10 cycles
 SCF Done:  E(RHF) =  -95.2461456500     A.U. after   10 cycles
 SCF Done:  E(RHF) =  -95.2476371026     A.U. after   10 cycles
 SCF Done:  E(RHF) =  -95.2490124634     A.U. after   11 cycles
 SCF Done:  E(RHF) =  -95.2494567582     A.U. after   10 cycles
 SCF Done:  E(RHF) =  -95.2497266566     A.U. after   10 cycles
 SCF Done:  E(RHF) =  -95.2498717737     A.U. after   12 cycles
 SCF Done:  E(RHF) =  -95.2498860527     A.U. after   12 cycles
 Optimization completed.
    -- Stationary point found.
 Normal termination of Gaussian 09 at Fri May 29 10:21:10 2015.

 ----------------------------------------------------------------------
 #N Geom=AllCheck Guess=TCheck SCRF=Check GenChk RHF/6-311+G(2df,p) Fre
 q
 ----------------------------------------------------------------------

 title
 -----
 Redundant internal coordinates taken from checkpoint file:
 fsadshdsadsaadsads.chk
 Charge =  0 Multiplicity = 1

                         Standard orientation:
 ---------------------------------------------------------------------
 Center     Atomic      Atomic             Coordinates (Angstroms)
 Number     Number       Type             X           Y           Z
 ---------------------------------------------------------------------
      1          7           0        0.742378    0.000098   -0.115565
      2          6           0       -0.702691    0.000048    0.016598
      3          1           0       -1.060851   -0.001862    1.045768
      4          1           0       -1.109570    0.873997   -0.478455
      5          1           0       -1.108943   -0.872804   -0.480776
      6          1           0        1.149471   -0.806222    0.311005
      7          1           0        1.149394    0.805917    0.311826
 ---------------------------------------------------------------------

 SCF Done:  E(RHF) =  -95.2498860527     A.U. after    1 cycles

 The electronic state is 1-A.
 Alpha  occ. eigenvalues --  -15.53322 -11.23690  -1.17543  -0.89930  -0.66976
 Alpha  occ. eigenvalues --   -0.60590  -0.56246  -0.51994  -0.38759
 Alpha virt. eigenvalues --    0.07097   0.09295   0.10251   0.11006   0.17019
 Alpha virt. eigenvalues --    0.19650   0.22110   0.27399   0.28271   0.30326
 Alpha virt. eigenvalues --    0.31074   0.32137   0.35462   0.40757   0.53203

 Mulliken atomic charges:
              1
     1  N   -0.539917
     2  C   -0.266585
     3  H    0.099987
     4  H    0.116776
     5  H    0.116737
     6  H    0.236507
     7  H    0.236496
 Sum of Mulliken atomic charges =   0.00000

 Dipole moment (field-independent basis, Debye):
    X=             -0.2512    Y=             -0.0008    Z=              1.3668  Tot=              1.3897
 Quadrupole moment (field-independent basis, Debye-Ang):
   XX=            -13.9029   YY=            -12.5264   ZZ=            -15.5450
   XY=             -0.0021   XZ=              2.0781   YZ=              0.0010

  Exact polarizability:  23.380   0.000  20.873  -0.295  -0.001  20.901
 Approx polarizability:  18.448   0.000  18.624  -0.003  -0.001  18.126

                     1                      2                      3
                     A                      A                      A
 Frequencies --   317.6683               892.9493              1039.8122
 Red. masses --     1.0284                 1.1704                 1.0446
 Frc consts  --     0.0611                 0.5499                 0.6655
 IR Inten    --    36.4385               167.2393                 0.0020
 Raman Activ --     0.1917                 1.3462                 0.0721

                     4                      5                      6
                     A                      A                      A
 Frequencies --  1135.4388              1266.0974              1453.6879
 Red. masses --     4.0904                 1.3579                 1.3575
 Frc consts  --     3.1070                 1.2825                 1.6902
 IR Inten    --    22.9850                11.9882                 0.0972
 Raman Activ --    11.4612                 0.4359                 1.4995

                     7                      8                      9
                     A                      A                      A
 Frequencies --  1581.2435              1615.3285              1633.1692
 Red. masses --     1.1717                 1.0564                 1.0363
 Frc consts  --     1.7261                 1.6241                 1.6285
 IR Inten    --     2.6964                 6.7077                 3.9239
 Raman Activ --     1.3467                 8.6811                 9.9374

                    10                     11                     12
                     A                      A                      A
 Frequencies --  1794.7871              3117.5452              3193.5386
 Red. masses --     1.0918                 1.0563                 1.0783
 Frc consts  --     2.0721                 6.0487                 6.4792
 IR Inten    --    31.5700                94.6307                47.9154
 Raman Activ --     3.0548               130.6118                97.4432

                    13                     14                     15
                     A                      A                      A
 Frequencies --  3225.6591              3730.0851              3806.8030
 Red. masses --     1.1041                 1.0498                 1.0945
 Frc consts  --     6.7687                 8.6055                 9.3454
 IR Inten    --    44.9968                 0.3808                 3.6808
 Raman Activ --    67.6641                97.8608                52.4415

 - Thermochemistry -
 -------------------
 Temperature   298.150 Kelvin.  Pressure   1.00000 Atm.
 Atom     1 has atomic number  7 and mass  14.00307

 Molecular mass:    31.04220 amu.
 Principal axes and moments of inertia in atomic units:
                           1         2         3
     Eigenvalues --    16.99795  77.93928  81.27686
           X            0.99936  -0.00002   0.03577
           Y            0.00002   1.00000   0.00005
           Z           -0.03577  -0.00004   0.99936
 This molecule is an asymmetric top.
 Rotational symmetry number  1.
 Rotational temperatures (Kelvin)      5.09554     1.11130     1.06566
 Rotational constants (GHZ):         106.17402    23.15573    22.20486
 Zero-point vibrational energy     178266.4 (Joules/Mol)
                                   42.60669 (Kcal/Mol)
 Warning -- explicit consideration of   1 degrees of freedom as
           vibrations may cause significant error
 Vibrational temperatures:    457.05  1284.75  1496.06  1633.64  1821.63
          (Kelvin)           2091.53  2275.05  2324.09  2349.76  2582.30
                             4485.45  4594.78  4641.00  5366.75  5477.13

 Zero-point correction=                           0.067898 (Hartree/Particle)
 Thermal correction to Energy=                    0.071267
 Thermal correction to Enthalpy=                  0.072212
 Thermal correction to Gibbs Free Energy=         0.045026
 Sum of electronic and zero-point Energies=            -95.181988
 Sum of electronic and thermal Energies=               -95.178619
 Sum of electronic and thermal Enthalpies=             -95.177674
 Sum of electronic and thermal Free Energies=          -95.204860

                     E (Thermal)             CV                S
                      KCal/Mol        Cal/Mol-Kelvin    Cal/Mol-Kelvin
 Total                   44.721              9.130             57.217
 Electronic               0.000              0.000              0.000
 Translational            0.889              2.981             36.231
 Rotational               0.889              2.981             19.316
 Vibrational             42.944              3.169              1.671
 Vibration     1          0.704              1.640              1.322

 Optimization completed.
    -- Stationary point found.
 Normal termination of Gaussian 09 at Fri May 29 10:21:18 2015.
