 Gaussian 09, Revision A.02,
 Gaussian 09:  EM64L-G09RevA.02 11-Jun-2009

 ----------------------------
 # HF/6-311+G(2df,p) Opt Freq
 ----------------------------

 -----
 title
 -----
 Symbolic Z-matrix:
 Charge =  0 Multiplicity = 1

 SCF Done:  E(RHF) =  -285.680015552     A.U. after   15 cycles
 SCF Done:  E(RHF) =  -285.734031210     A.U. after   14 cycles
 SCF Done:  E(RHF) =  -285.803552490     A.U. after   14 cycles
 SCF Done:  E(RHF) =  -285.811100102     A.U. after   13 cycles
 SCF Done:  E(RHF) =  -285.810921591     A.U. after   15 cycles
 SCF Done:  E(RHF) =  -285.811637748     A.U. after   15 cycles
 SCF Done:  E(RHF) =  -285.811684143     A.U. after   11 cycles
 SCF Done:  E(RHF) =  -285.811688349     A.U. after   15 cycles
 SCF Done:  E(RHF) =  -285.811709561     A.U. after   11 cycles
 SCF Done:  E(RHF) =  -285.790325106     A.U. after   15 cycles
 SCF Done:  E(RHF) =  -285.582426189     A.U. after   17 cycles
 SCF Done:  E(RHF) =  -285.822604519     A.U. after   15 cycles
 SCF Done:  E(RHF) =  -285.823052604     A.U. after   15 cycles
 SCF Done:  E(RHF) =  -285.822538429     A.U. after   13 cycles
 SCF Done:  E(RHF) =  -285.824076084     A.U. after   15 cycles
 SCF Done:  E(RHF) =  -285.824186359     A.U. after   15 cycles
 SCF Done:  E(RHF) =  -285.824196169     A.U. after   11 cycles
 SCF Done:  E(RHF) =  -285.824198331     A.U. after   15 cycles
 SCF Done:  E(RHF) =  -285.824198541     A.U. after   15 cycles
 Optimization completed.
    -- Stationary point found.
 Normal termination of Gaussian 09 at Fri May 29 11:04:09 2015.

 ----------------------------------------------------------------------
 #N Geom=AllCheck Guess=TCheck SCRF=Check GenChk RHF/6-311+G(2df,p) Fre
 q
 ----------------------------------------------------------------------

 title
 -----
 Redundant internal coordinates taken from checkpoint file:
 fdsasadshkandy.chk
 Charge =  0 Multiplicity = 1

                         Standard orientation:
 ---------------------------------------------------------------------
 Center     Atomic      Atomic             Coordinates (Angstroms)
 Number     Number       Type             X           Y           Z
 ---------------------------------------------------------------------
      1          6           0        0.219188    1.194780   -0.007386
      2          6           0        0.926858   -0.000050   -0.011687
      3          6           0       -1.160436    1.188879    0.003994
      4          1           0       -1.688527    2.125260    0.007943
      5          6           0        0.219131   -1.194800   -0.007355
      6          6           0       -1.864889    0.000024    0.010019
      7          1           0        0.752211   -2.128991   -0.017979
      8          1           0       -2.938444    0.000075    0.019091
      9          6           0       -1.160521   -1.188824    0.003923
     10          1           0       -1.688616   -2.125202    0.008053
     11          1           0        0.752368    2.128916   -0.017851
     12          7           0        2.317975   -0.000036   -0.071731
     13          1           0        2.754607   -0.822913    0.277150
     14          1           0        2.754594    0.823053    0.276673
 ---------------------------------------------------------------------

 SCF Done:  E(RHF) =  -285.824198541     A.U. after    1 cycles

 The electronic state is 1-A.
 Alpha  occ. eigenvalues --  -15.56033 -11.27233 -11.22856 -11.22852 -11.21712
 Alpha  occ. eigenvalues --  -11.21710 -11.21245  -1.23043  -1.13344  -1.01601
 Alpha  occ. eigenvalues --   -0.99071  -0.83543  -0.81642  -0.71116  -0.69148
 Alpha  occ. eigenvalues --   -0.65751  -0.60137  -0.59763  -0.58395  -0.53800
 Alpha  occ. eigenvalues --   -0.50909  -0.48972  -0.45081  -0.33817  -0.29625
 Alpha virt. eigenvalues --    0.06677   0.07767   0.07856   0.09651   0.09704
 Alpha virt. eigenvalues --    0.11243   0.12083   0.12306   0.13863   0.15234
 Alpha virt. eigenvalues --    0.15710   0.16319   0.16403   0.18977   0.19096

 Mulliken atomic charges:
              1
     1  C   -0.277788
     2  C    0.414352
     3  C   -0.077969
     4  H    0.135852
     5  C   -0.277817
     6  C   -0.281450
     7  H    0.119893
     8  H    0.132677
     9  C   -0.077957
    10  H    0.135850
    11  H    0.119878
    12  N   -0.598676
    13  H    0.266576
    14  H    0.266581
 Sum of Mulliken atomic charges =   0.00000

 Dipole moment (field-independent basis, Debye):
    X=              1.0239    Y=              0.0003    Z=              1.0300  Tot=              1.4523
 Quadrupole moment (field-independent basis, Debye-Ang):
   XX=            -35.8476   YY=            -36.5736   ZZ=            -47.7182
   XY=              0.0010   XZ=              3.3372   YZ=             -0.0008

  Exact polarizability:  92.878   0.000  80.956  -0.182   0.000  47.774
 Approx polarizability:  84.693   0.000  79.692  -0.250   0.000  51.628

                     1                      2                      3
                     A                      A                      A
 Frequencies --   242.6427               271.7860               409.9881
 Red. masses --     3.5828                 1.0396                 2.9259
 Frc consts  --     0.1243                 0.0452                 0.2898
 IR Inten    --     6.5843                22.2405                 0.4405
 Raman Activ --     0.8892                 0.2239                 0.2217

                     4                      5                      6
                     A                      A                      A
 Frequencies --   456.4280               550.5064               571.8921
 Red. masses --     2.9120                 2.2810                 6.1740
 Frc consts  --     0.3574                 0.4073                 1.1897
 IR Inten    --     0.1756                81.2282                 3.1133
 Raman Activ --     0.0242                 0.3967                 4.4184

                     7                      8                      9
                     A                      A                      A
 Frequencies --   664.1407               678.2337               764.9590
 Red. masses --     1.4375                 6.3590                 1.9483
 Frc consts  --     0.3736                 1.7234                 0.6717
 IR Inten    --   233.5494                 0.3125                23.8629
 Raman Activ --     5.9361                 4.2363                 0.0902

                    10                     11                     12
                     A                      A                      A
 Frequencies --   841.5484               883.7434               921.6651
 Red. masses --     1.7031                 4.0758                 1.2569
 Frc consts  --     0.7106                 1.8755                 0.6291
 IR Inten    --    97.6017                 8.1378                 0.0053
 Raman Activ --     4.0548                22.3098                 1.9735

                    13                     14                     15
                     A                      A                      A
 Frequencies --   988.4299              1076.7808              1088.6768
 Red. masses --     1.5313                 6.0692                 1.3603
 Frc consts  --     0.8815                 4.1460                 0.9499
 IR Inten    --    13.7783                 2.3601                 0.0231
 Raman Activ --     0.8302                40.2322                 0.0478

                    16                     17                     18
                     A                      A                      A
 Frequencies --  1100.3862              1117.2765              1130.9948
 Red. masses --     1.3043                 2.1580                 1.9469
 Frc consts  --     0.9305                 1.5872                 1.4673
 IR Inten    --     0.3119                 2.6760                 0.4588
 Raman Activ --     0.2113                15.5322                 0.4431

                    19                     20                     21
                     A                      A                      A
 Frequencies --  1175.8627              1239.0751              1286.3696
 Red. masses --     1.8500                 1.2467                 1.1482
 Frc consts  --     1.5071                 1.1278                 1.1194
 IR Inten    --    17.6859                 1.8129                12.2408
 Raman Activ --     0.3572                 6.1530                 2.1945

                    22                     23                     24
                     A                      A                      A
 Frequencies --  1342.4307              1377.6622              1483.2701
 Red. masses --     1.5805                 3.3640                 1.2904
 Frc consts  --     1.6782                 3.7618                 1.6726
 IR Inten    --     3.8706                72.0348                 0.0641
 Raman Activ --     0.2422                17.2840                 0.2078

                    25                     26                     27
                     A                      A                      A
 Frequencies --  1620.1512              1653.2837              1766.7679
 Red. masses --     2.2078                 2.2141                 5.4113
 Frc consts  --     3.4145                 3.5656                 9.9520
 IR Inten    --     2.9809                69.2190                11.3297
 Raman Activ --     0.8696                 0.3344                 6.9984

                    28                     29                     30
                     A                      A                      A
 Frequencies --  1778.0960              1802.5962              3302.3446
 Red. masses --     2.8733                 1.3764                 1.0862
 Frc consts  --     5.3524                 2.6350                 6.9789
 IR Inten    --    36.7526               153.4095                16.3573
 Raman Activ --    23.2658                22.9974                10.0835

                    31                     32                     33
                     A                      A                      A
 Frequencies --  3304.8443              3320.1577              3326.5922
 Red. masses --     1.0891                 1.0918                 1.0954
 Frc consts  --     7.0083                 7.0909                 7.1417
 IR Inten    --     2.5031                 7.2301                42.0567
 Raman Activ --   100.7494               141.2744                13.8109

                    34                     35                     36
                     A                      A                      A
 Frequencies --  3344.3822              3784.9277              3881.1551
 Red. masses --     1.0983                 1.0485                 1.0988
 Frc consts  --     7.2378                 8.8496                 9.7523
 IR Inten    --    14.5681                23.7820                20.5462
 Raman Activ --   217.1312               133.1098                46.0258

 - Thermochemistry -
 -------------------
 Temperature   298.150 Kelvin.  Pressure   1.00000 Atm.
 Atom     1 has atomic number  6 and mass  12.00000

 Molecular mass:    93.05785 amu.
 Principal axes and moments of inertia in atomic units:
                           1         2         3
     Eigenvalues --   314.27141 685.15607 997.86573
           X            0.99997   0.00001   0.00736
           Y           -0.00001   1.00000   0.00000
           Z           -0.00736   0.00000   0.99997
 This molecule is an asymmetric top.
 Rotational symmetry number  1.
 Rotational temperatures (Kelvin)      0.27560     0.12641     0.08680
 Rotational constants (GHZ):           5.74262     2.63406     1.80860
 Zero-point vibrational energy     326281.7 (Joules/Mol)
                                   77.98321 (Kcal/Mol)
 Warning -- explicit consideration of   6 degrees of freedom as
           vibrations may cause significant error
 Vibrational temperatures:    349.11   391.04   589.88   656.70   792.05
          (Kelvin)            822.82   955.55   975.83  1100.60  1210.80
                             1271.51  1326.07  1422.13  1549.25  1566.36
                             1583.21  1607.51  1627.25  1691.80  1782.75
                             1850.80  1931.46  1982.15  2134.09  2331.03
                             2378.70  2541.98  2558.28  2593.53  4751.33
                             4754.93  4776.96  4786.22  4811.81  5445.66
                             5584.11

 Zero-point correction=                           0.124274 (Hartree/Particle)
 Thermal correction to Energy=                    0.129737
 Thermal correction to Enthalpy=                  0.130681
 Thermal correction to Gibbs Free Energy=         0.095305
 Sum of electronic and zero-point Energies=           -285.699924
 Sum of electronic and thermal Energies=              -285.694462
 Sum of electronic and thermal Enthalpies=            -285.693518
 Sum of electronic and thermal Free Energies=         -285.728894

                     E (Thermal)             CV                S
                      KCal/Mol        Cal/Mol-Kelvin    Cal/Mol-Kelvin
 Total                   81.411             21.380             74.456
 Electronic               0.000              0.000              0.000
 Translational            0.889              2.981             39.504
 Rotational               0.889              2.981             26.866
 Vibrational             79.634             15.418              8.086
 Vibration     1          0.659              1.775              1.783
 Vibration     2          0.675              1.725              1.585
 Vibration     3          0.774              1.449              0.927
 Vibration     4          0.815              1.347              0.777
 Vibration     5          0.906              1.139              0.543
 Vibration     6          0.928              1.092              0.501

 Optimization completed.
    -- Stationary point found.
 Normal termination of Gaussian 09 at Fri May 29 11:09:15 2015.
