 Gaussian 09, Revision A.02,
 Gaussian 09:  EM64L-G09RevA.02 11-Jun-2009

 ----------------------------
 # HF/6-311+G(2df,p) Opt Freq
 ----------------------------

 -----
 title
 -----
 Symbolic Z-matrix:
 Charge =  0 Multiplicity = 1

 SCF Done:  E(RHF) =  -757.268316986     A.U. after   17 cycles
 SCF Done:  E(RHF) =  -757.313494573     A.U. after   14 cycles
 SCF Done:  E(RHF) =  -757.376969984     A.U. after   15 cycles
 SCF Done:  E(RHF) =  -757.392178147     A.U. after   16 cycles
 SCF Done:  E(RHF) =  -757.394441175     A.U. after   17 cycles
 SCF Done:  E(RHF) =  -757.390719213     A.U. after   17 cycles
 SCF Done:  E(RHF) =  -757.394885419     A.U. after   16 cycles
 SCF Done:  E(RHF) =  -757.394612391     A.U. after   15 cycles
 SCF Done:  E(RHF) =  -757.394662272     A.U. after   13 cycles
 SCF Done:  E(RHF) =  -757.395246800     A.U. after   14 cycles
 SCF Done:  E(RHF) =  -757.395323507     A.U. after   13 cycles
 SCF Done:  E(RHF) =  -757.395118877     A.U. after   14 cycles
 SCF Done:  E(RHF) =  -757.395341702     A.U. after   14 cycles
 SCF Done:  E(RHF) =  -757.395370641     A.U. after   12 cycles
 SCF Done:  E(RHF) =  -757.395373955     A.U. after   11 cycles
 SCF Done:  E(RHF) =  -757.395373767     A.U. after   10 cycles
 SCF Done:  E(RHF) =  -757.395375739     A.U. after   11 cycles
 SCF Done:  E(RHF) =  -757.395376363     A.U. after    9 cycles
 SCF Done:  E(RHF) =  -757.395376449     A.U. after    8 cycles
 Optimization completed.
    -- Stationary point found.
 Normal termination of Gaussian 09 at Fri May 29 10:48:26 2015.

 ----------------------------------------------------------------------
 #N Geom=AllCheck Guess=TCheck SCRF=Check GenChk RHF/6-311+G(2df,p) Fre
 q
 ----------------------------------------------------------------------

 title
 -----
 Redundant internal coordinates taken from checkpoint file:
 kjkjkjkjdsads.chk
 Charge =  0 Multiplicity = 1

                         Standard orientation:
 ---------------------------------------------------------------------
 Center     Atomic      Atomic             Coordinates (Angstroms)
 Number     Number       Type             X           Y           Z
 ---------------------------------------------------------------------
      1          6           0        1.872815    0.118783   -0.020846
      2          6           0        1.866082   -0.465361    1.366970
      3          1           0        2.793903   -0.193663    1.845015
      4          1           0        1.031578   -0.091624    1.947559
      5          1           0        1.775743   -1.543939    1.325300
      6          8           0        2.790369    0.735038   -0.456020
      7          7           0        0.759438   -0.077444   -0.811950
      8         16           0       -0.588981   -1.001375   -0.475102
      9          6           0       -1.823465    0.163066    0.109724
     10          6           0       -1.504383    1.632663    0.153740
     11          1           0       -1.243366    1.993333   -0.833523
     12          1           0       -2.378945    2.152230    0.517092
     13          1           0       -0.663139    1.825225    0.807476
     14          8           0       -2.858375   -0.302493    0.425888
     15          1           0        0.869609    0.267288   -1.740117
 ---------------------------------------------------------------------

 SCF Done:  E(RHF) =  -757.395376449     A.U. after    1 cycles

 The electronic state is 1-A.
 Alpha  occ. eigenvalues --  -92.01651 -20.57427 -20.54376 -15.61927 -11.37289
 Alpha  occ. eigenvalues --  -11.36905 -11.25528 -11.24500  -9.01579  -6.69790
 Alpha  occ. eigenvalues --   -6.69625  -6.69567  -1.44191  -1.42659  -1.26404
 Alpha  occ. eigenvalues --   -1.05451  -1.02720  -0.98591  -0.81657  -0.77346
 Alpha  occ. eigenvalues --   -0.71029  -0.69595  -0.66380  -0.64708  -0.63668
 Alpha  occ. eigenvalues --   -0.62753  -0.59379  -0.57922  -0.55868  -0.54768
 Alpha  occ. eigenvalues --   -0.53884  -0.47540  -0.45347  -0.40047  -0.39573
 Alpha virt. eigenvalues --    0.05554   0.06981   0.07346   0.08242   0.08933
 Alpha virt. eigenvalues --    0.10292   0.10698   0.11354   0.11755   0.12115
 Alpha virt. eigenvalues --    0.13427   0.13842   0.14540   0.15134   0.15603

 Mulliken atomic charges:
              1
     1  C    0.250633
     2  C   -0.314903
     3  H    0.179090
     4  H    0.162056
     5  H    0.181040
     6  O   -0.465581
     7  N   -0.207783
     8  S   -0.110761
     9  C    0.347477
    10  C   -0.505870
    11  H    0.174470
    12  H    0.188904
    13  H    0.173076
    14  O   -0.383886
    15  H    0.332037
 Sum of Mulliken atomic charges =   0.00000

 Dipole moment (field-independent basis, Debye):
    X=             -0.0028    Y=              0.8130    Z=              0.3660  Tot=              0.8916
 Quadrupole moment (field-independent basis, Debye-Ang):
   XX=            -74.0247   YY=            -53.9249   ZZ=            -50.8420
   XY=             -9.7541   XZ=              5.5246   YZ=              0.2003

  Exact polarizability:  93.134   3.309  67.962  -4.079  -0.752  62.108
 Approx polarizability:  78.481   4.074  64.372  -5.049  -0.870  61.313

                     1                      2                      3
                     A                      A                      A
 Frequencies --    64.7077                76.8356                81.9476
 Red. masses --     8.1978                 5.1362                 3.4829
 Frc consts  --     0.0202                 0.0179                 0.0138
 IR Inten    --     5.5669                 8.2472                 0.9576
 Raman Activ --     1.2493                 0.5974                 1.2707

                     4                      5                      6
                     A                      A                      A
 Frequencies --   148.1227               152.4328               253.4571
 Red. masses --     1.0403                 1.0306                 5.0397
 Frc consts  --     0.0134                 0.0141                 0.1907
 IR Inten    --     0.1173                 0.0393                 5.2649
 Raman Activ --     0.0455                 0.0828                 0.4706

                     7                      8                      9
                     A                      A                      A
 Frequencies --   262.9036               404.7130               449.9937
 Red. masses --     4.8335                 6.4722                 5.7916
 Frc consts  --     0.1968                 0.6246                 0.6910
 IR Inten    --     4.1195                 2.2872                 9.9682
 Raman Activ --     0.4131                 5.6958                 3.4478

                    10                     11                     12
                     A                      A                      A
 Frequencies --   534.0051               555.8673               561.8234
 Red. masses --     3.0129                 5.2349                 3.3855
 Frc consts  --     0.5062                 0.9530                 0.6296
 IR Inten    --    18.8333                15.5779                 8.9948
 Raman Activ --     0.4114                 1.1032                 1.4112

                    13                     14                     15
                     A                      A                      A
 Frequencies --   614.9731               686.8134               693.2997
 Red. masses --     1.6203                 3.5801                 1.7418
 Frc consts  --     0.3610                 0.9950                 0.4933
 IR Inten    --    14.7384                 9.7375               128.4619
 Raman Activ --     1.2464                13.4059                 0.9782

                    16                     17                     18
                     A                      A                      A
 Frequencies --   829.7355              1027.7791              1060.7341
 Red. masses --     4.6294                 2.3158                 3.6077
 Frc consts  --     1.8778                 1.4413                 2.3916
 IR Inten    --     3.7887                58.8430                28.0488
 Raman Activ --     9.1195                 2.3222                 1.5044

                    19                     20                     21
                     A                      A                      A
 Frequencies --  1108.0090              1122.0097              1162.2592
 Red. masses --     1.5920                 1.6680                 1.8486
 Frc consts  --     1.1516                 1.2372                 1.4713
 IR Inten    --    53.7434                 3.0495                 6.2136
 Raman Activ --     2.5389                 0.0885                 0.2745

                    22                     23                     24
                     A                      A                      A
 Frequencies --  1251.7180              1406.8482              1519.8251
 Red. masses --     2.4819                 3.4379                 1.2864
 Frc consts  --     2.2911                 4.0091                 1.7508
 IR Inten    --   162.0716               346.9216                17.1845
 Raman Activ --     2.4025                 0.6597                 0.5467

                    25                     26                     27
                     A                      A                      A
 Frequencies --  1531.4182              1538.8337              1576.0166
 Red. masses --     1.3655                 1.3773                 1.0470
 Frc consts  --     1.8868                 1.9216                 1.5323
 IR Inten    --    38.2373                42.1691                 7.9309
 Raman Activ --     2.0902                 0.4208                 6.2666

                    28                     29                     30
                     A                      A                      A
 Frequencies --  1580.6235              1591.0714              1600.8214
 Red. masses --     1.0557                 1.0472                 1.0466
 Frc consts  --     1.5540                 1.5619                 1.5802
 IR Inten    --     8.6690                11.2989                12.9618
 Raman Activ --     4.0899                 3.4252                 8.1180

                    31                     32                     33
                     A                      A                      A
 Frequencies --  1947.6418              1964.9613              3188.3956
 Red. masses --     9.2130                11.7557                 1.0354
 Frc consts  --    20.5905                26.7427                 6.2018
 IR Inten    --   756.2282               152.6991                 2.4473
 Raman Activ --     9.7968                24.9639                85.3665

                    34                     35                     36
                     A                      A                      A
 Frequencies --  3190.0349              3247.7832              3253.1750
 Red. masses --     1.0382                 1.1001                 1.1002
 Frc consts  --     6.2246                 6.8369                 6.8602
 IR Inten    --     2.7470                 8.7637                 7.4052
 Raman Activ --   151.6890                32.1947                34.3779

                    37                     38                     39
                     A                      A                      A
 Frequencies --  3282.6844              3294.3020              3812.4752
 Red. masses --     1.1053                 1.1033                 1.0765
 Frc consts  --     7.0176                 7.0544                 9.2190
 IR Inten    --     9.5475                11.7682                55.7038
 Raman Activ --    76.8743                66.8139                65.7759

 - Thermochemistry -
 -------------------
 Temperature   298.150 Kelvin.  Pressure   1.00000 Atm.
 Atom     1 has atomic number  6 and mass  12.00000

 Molecular mass:   133.01975 amu.
 Principal axes and moments of inertia in atomic units:
                           1         2         3
     Eigenvalues --   536.847491804.238601920.84258
           X            0.99928  -0.03169   0.02080
           Y            0.03303   0.99720  -0.06716
           Z           -0.01861   0.06780   0.99753
 This molecule is an asymmetric top.
 Rotational symmetry number  1.
 Warning -- assumption of classical behavior for rotation
           may cause significant error
 Rotational temperatures (Kelvin)      0.16134     0.04801     0.04509
 Rotational constants (GHZ):           3.36174     1.00028     0.93956
 Zero-point vibrational energy     314803.6 (Joules/Mol)
                                   75.23987 (Kcal/Mol)
 Warning -- explicit consideration of  13 degrees of freedom as
           vibrations may cause significant error
 Vibrational temperatures:     93.10   110.55   117.90   213.12   219.32
          (Kelvin)            364.67   378.26   582.29   647.44   768.31
                              799.77   808.34   884.81   988.17   997.50
                             1193.80  1478.74  1526.16  1594.18  1614.32
                             1672.23  1800.94  2024.14  2186.69  2203.37
                             2214.04  2267.53  2274.16  2289.19  2303.22
                             2802.22  2827.14  4587.38  4589.74  4672.83
                             4680.59  4723.04  4739.76  5485.29

 Zero-point correction=                           0.119902 (Hartree/Particle)
 Thermal correction to Energy=                    0.129095
 Thermal correction to Enthalpy=                  0.130039
 Thermal correction to Gibbs Free Energy=         0.084690
 Sum of electronic and zero-point Energies=           -757.275474
 Sum of electronic and thermal Energies=              -757.266281
 Sum of electronic and thermal Enthalpies=            -757.265337
 Sum of electronic and thermal Free Energies=         -757.310686

                     E (Thermal)             CV                S
                      KCal/Mol        Cal/Mol-Kelvin    Cal/Mol-Kelvin
 Total                   81.008             30.855             95.445
 Electronic               0.000              0.000              0.000
 Translational            0.889              2.981             40.569
 Rotational               0.889              2.981             29.011
 Vibrational             79.231             24.893             25.866
 Vibration     1          0.597              1.971              4.308
 Vibration     2          0.599              1.965              3.970
 Vibration     3          0.600              1.962              3.844
 Vibration     4          0.617              1.905              2.696
 Vibration     5          0.619              1.900              2.642
 Vibration     6          0.665              1.757              1.706
 Vibration     7          0.670              1.741              1.642
 Vibration     8          0.770              1.460              0.945
 Vibration     9          0.809              1.361              0.796
 Vibration    10          0.889              1.175              0.578
 Vibration    11          0.911              1.127              0.532
 Vibration    12          0.918              1.114              0.520
 Vibration    13          0.974              1.000              0.425

 Optimization completed.
    -- Stationary point found.
 Normal termination of Gaussian 09 at Fri May 29 11:00:03 2015.
