                         Program Version 5.0.1 -  RELEASE  -
|  1> #memory request in MB
|  2> %maxcore 1000
|  3>
|  4> #method, basis set, type of calculation
|  5> #(optimization followed by frequency calculation)
|  6> ! M062X GCP(DFT/631GD) TIGHTSCF Opt Freq PAL2 Slowconv
|  7> %geom
|  8> maxiter 500
|  9> Calc_Hess true
| 10> Recalc_Hess 2
| 11> end
| 12> #xyz for cartesian coordinates, charge, spin multiplicity
| 13> *xyz 0 1
| 14> #atomic symbol, coordinates
| 15> #16
| 16> #symmetry c1
| 17> C       -0.052191000     -0.404117000     -0.144131000
| 18> C        0.255715000      0.944147000     -0.354792000
| 19> C        0.983319000     -1.279211000      0.192722000
| 20> H       -0.533670000      1.648873000     -0.582973000
| 21> H        0.754334000     -2.323101000      0.371575000
| 22> C        1.559947000      1.393625000     -0.247656000
| 23> C        2.290217000     -0.830072000      0.297111000
| 24> H        1.781569000      2.440591000     -0.409151000
| 25> H        3.080302000     -1.522817000      0.556061000
| 26> C        2.582653000      0.508197000      0.074941000
| 27> H        3.601175000      0.863997000      0.159622000
| 28> C       -1.412940000     -0.923168000     -0.249544000
| 29> H       -1.562585000     -1.928156000      0.131332000
| 30> C       -2.480072000     -0.256781000     -0.733743000
| 31> H       -2.391891000      0.712261000     -1.204048000
| 32> H       -3.444683000     -0.740007000     -0.803302000
| 33> *
| 34>
| 35>
| 36>
| 37>
| 38>                          ****END OF INPUT****
 Total Charge           Charge          ....    0
 Multiplicity           Mult            ....    1
 Number of Electrons    NEL             ....   56
FINAL SINGLE POINT ENERGY      -309.243830659049
FINAL SINGLE POINT ENERGY      -309.245892636073
FINAL SINGLE POINT ENERGY      -309.245901551178
FINAL SINGLE POINT ENERGY      -309.245931290488
FINAL SINGLE POINT ENERGY      -309.245915758355
FINAL SINGLE POINT ENERGY      -309.245947406693
                    ***********************HURRAY********************

CARTESIAN COORDINATES (ANGSTROEM)
---------------------------------
  C     -0.042150   -0.412564   -0.219428
  C      0.287590    0.928005   -0.483990
  C      0.979007   -1.273228    0.211729
  H     -0.480541    1.620231   -0.840984
  H      0.742194   -2.322735    0.416860
  C      1.589901    1.389153   -0.310088
  C      2.284467   -0.813244    0.387597
  H      1.825717    2.435966   -0.524008
  H      3.062677   -1.502298    0.728562
  C      2.594482    0.521599    0.129114
  H      3.616244    0.888254    0.264041
  C     -1.411360   -0.949108   -0.376034
  H     -1.493484   -2.038380   -0.267281
  C     -2.525542   -0.251003   -0.620142
  H     -2.527120    0.839170   -0.722777
  H     -3.490884   -0.755556   -0.719146

 Multiplicity           Mult            ....    1
 Number of Electrons    NEL             ....   56
 Basis Dimension        Dim             ....  152

ORBITAL ENERGIES
----------------

  NO   OCC          E(Eh)            E(eV)
   0   2.0000     -10.565999      -287.5155
   1   2.0000     -10.562500      -287.4202
   2   2.0000     -10.559914      -287.3499
   3   2.0000     -10.559642      -287.3425
   4   2.0000     -10.559243      -287.3316
   5   2.0000     -10.559042      -287.3261
   6   2.0000     -10.558714      -287.3172
   7   2.0000     -10.554608      -287.2055
   8   2.0000      -0.955513       -26.0008
   9   2.0000      -0.879310       -23.9272
  10   2.0000      -0.833300       -22.6753
  11   2.0000      -0.809784       -22.0353
  12   2.0000      -0.700607       -19.0645
  13   2.0000      -0.680340       -18.5130
  14   2.0000      -0.631910       -17.1951
  15   2.0000      -0.586327       -15.9548
  16   2.0000      -0.542867       -14.7721
  17   2.0000      -0.521374       -14.1873
  18   2.0000      -0.506253       -13.7758
  19   2.0000      -0.486044       -13.2259
  20   2.0000      -0.476671       -12.9709
  21   2.0000      -0.447148       -12.1675
  22   2.0000      -0.432235       -11.7617
  23   2.0000      -0.403283       -10.9739
  24   2.0000      -0.397179       -10.8078
  25   2.0000      -0.363489        -9.8910
  26   2.0000      -0.309125        -8.4117
  27   2.0000      -0.279474        -7.6049
  28   0.0000      -0.006027        -0.1640
  29   0.0000       0.026352         0.7171
  30   0.0000       0.092590         2.5195
  31   0.0000       0.102932         2.8009
  32   0.0000       0.118979         3.2376

MULLIKEN ATOMIC CHARGES
-----------------------
   0 C :    0.035928
   1 C :   -0.042257
   2 C :   -0.052996
   3 H :    0.010480
   4 H :    0.013635
   5 C :   -0.016774
   6 C :   -0.013284
   7 H :    0.020963
   8 H :    0.022330
   9 C :   -0.018234
  10 H :    0.023478
  11 C :   -0.028617
  12 H :    0.022238
  13 C :   -0.079476
  14 H :    0.048281
  15 H :    0.054302
Sum of atomic charges:    0.0000000

LOEWDIN ATOMIC CHARGES
----------------------
   0 C :   -0.035457
   1 C :   -0.020901
   2 C :   -0.026294
   3 H :    0.031839
   4 H :    0.032197
   5 C :   -0.029728
   6 C :   -0.031387
   7 H :    0.034440
   8 H :    0.034615
   9 C :   -0.032917
  10 H :    0.033953
  11 C :   -0.028715
  12 H :    0.033693
  13 C :   -0.055002
  14 H :    0.026659
  15 H :    0.033005

  Mayer bond orders larger than 0.100000
B(  0-C ,  1-C ) :   1.3648 B(  0-C ,  2-C ) :   1.3717 B(  0-C , 11-C ) :   1.0524
B(  1-C ,  3-H ) :   0.9812 B(  1-C ,  5-C ) :   1.4279 B(  2-C ,  4-H ) :   0.9892
B(  2-C ,  6-C ) :   1.3932 B(  5-C ,  7-H ) :   0.9830 B(  5-C ,  9-C ) :   1.3764
B(  6-C ,  8-H ) :   0.9845 B(  6-C ,  9-C ) :   1.3983 B(  9-C , 10-H ) :   0.9865
B( 11-C , 12-H ) :   0.9634 B( 11-C , 13-C ) :   1.9636 B( 13-C , 14-H ) :   0.9479
B( 13-C , 15-H ) :   0.9483

FINAL SINGLE POINT ENERGY      -309.245947821674

DIPOLE MOMENT
-------------
                                X             Y             Z
Electronic contribution:      2.21174      -0.00937       0.33990
Nuclear contribution   :     -2.16522       0.02167      -0.33192
                        -----------------------------------------
Total Dipole Moment    :      0.04651       0.01230       0.00798
                        -----------------------------------------
Magnitude (a.u.)       :      0.04877
Magnitude (Debye)      :      0.12397

VIBRATIONAL FREQUENCIES
-----------------------

Scaling factor for frequencies =  1.000000000  (already applied!)

   0:         0.00 cm**-1
   1:         0.00 cm**-1
   2:         0.00 cm**-1
   3:         0.00 cm**-1
   4:         0.00 cm**-1
   5:         0.00 cm**-1
   6:        50.34 cm**-1
   7:       212.01 cm**-1
   8:       239.80 cm**-1
   9:       415.40 cm**-1
  10:       441.78 cm**-1
  11:       459.35 cm**-1
  12:       555.27 cm**-1
  13:       629.07 cm**-1
  14:       665.40 cm**-1
  15:       726.31 cm**-1
  16:       792.96 cm**-1
  17:       818.22 cm**-1
  18:       876.76 cm**-1
  19:       956.92 cm**-1
  20:       960.72 cm**-1
  21:      1012.20 cm**-1
  22:      1018.62 cm**-1
  23:      1034.90 cm**-1
  24:      1036.29 cm**-1
  25:      1046.15 cm**-1
  26:      1065.08 cm**-1
  27:      1111.89 cm**-1
  28:      1164.71 cm**-1
  29:      1194.14 cm**-1
  30:      1236.02 cm**-1
  31:      1311.35 cm**-1
  32:      1341.60 cm**-1
  33:      1353.69 cm**-1
  34:      1435.82 cm**-1
  35:      1487.34 cm**-1
  36:      1540.16 cm**-1
  37:      1665.04 cm**-1
  38:      1692.27 cm**-1
  39:      1743.83 cm**-1
  40:      3158.93 cm**-1
  41:      3169.58 cm**-1
  42:      3186.20 cm**-1
  43:      3193.77 cm**-1
  44:      3203.48 cm**-1
  45:      3210.64 cm**-1
  46:      3218.09 cm**-1
  47:      3258.18 cm**-1

IR SPECTRUM
-----------

 Mode   freq       eps      Int      T**2         TX        TY        TZ
       cm**-1   L/(mol*cm) km/mol    a.u.
----------------------------------------------------------------------------
  6:     50.34   0.000009    0.04  0.000054  ( 0.004402  0.004012 -0.004312)
  7:    212.01   0.000348    1.76  0.000512  ( 0.003281 -0.006579 -0.021405)
  8:    239.80   0.000086    0.44  0.000112  ( 0.008496 -0.001343  0.006187)
  9:    415.40   0.000032    0.16  0.000024  ( 0.000337  0.000682  0.004828)
 10:    441.78   0.000380    1.92  0.000269  (-0.001737  0.002131  0.016162)
 11:    459.35   0.001166    5.89  0.000792  (-0.008354  0.007553  0.025791)
 12:    555.27   0.000765    3.86  0.000430  (-0.019240 -0.004649 -0.006159)
 13:    629.07   0.000005    0.03  0.000002  (-0.000817 -0.001300 -0.000312)
 14:    665.40   0.000010    0.05  0.000005  ( 0.001150  0.001738  0.000465)
 15:    726.31   0.007207   36.42  0.003097  ( 0.012060 -0.014399 -0.052383)
 16:    792.96   0.000124    0.63  0.000049  ( 0.005596 -0.000036 -0.004202)
 17:    818.22   0.005958   30.11  0.002272  (-0.011981  0.009821  0.045082)
 18:    876.76   0.000031    0.16  0.000011  (-0.000216 -0.000058 -0.003339)
 19:    956.92   0.008963   45.30  0.002923  (-0.008836  0.005316  0.053072)
 20:    960.72   0.000139    0.70  0.000045  ( 0.002415 -0.002288 -0.005840)
 21:   1012.20   0.000066    0.33  0.000020  (-0.004423 -0.000839 -0.000334)
 22:   1018.62   0.000016    0.08  0.000005  ( 0.001231  0.001645 -0.000867)
 23:   1034.90   0.001196    6.04  0.000361  ( 0.015275  0.009483  0.006112)
 24:   1036.29   0.001025    5.18  0.000309  ( 0.005899 -0.000472 -0.016542)
 25:   1046.15   0.001015    5.13  0.000303  ( 0.005400 -0.001266 -0.016491)
 26:   1065.08   0.000192    0.97  0.000056  ( 0.006715  0.001343  0.003051)
 27:   1111.89   0.001098    5.55  0.000308  (-0.007660  0.015226 -0.004207)
 28:   1164.71   0.000050    0.26  0.000014  (-0.003086 -0.001583 -0.001223)
 29:   1194.14   0.000019    0.10  0.000005  (-0.002167  0.000582 -0.000116)
 30:   1236.02   0.000518    2.62  0.000131  (-0.011254 -0.001005 -0.001782)
 31:   1311.35   0.000562    2.84  0.000134  ( 0.011369 -0.000711  0.001976)
 32:   1341.60   0.000419    2.12  0.000097  ( 0.002613  0.009492 -0.000748)
 33:   1353.69   0.000106    0.53  0.000024  ( 0.004854  0.000149  0.000864)
 34:   1435.82   0.001186    5.99  0.000258  (-0.007217  0.014090 -0.002678)
 35:   1487.34   0.001600    8.09  0.000336  ( 0.003801  0.017559 -0.003603)
 36:   1540.16   0.002685   13.57  0.000544  (-0.022872 -0.002270 -0.003961)
 37:   1665.04   0.000508    2.57  0.000095  ( 0.007533 -0.005498  0.002865)
 38:   1692.27   0.000463    2.34  0.000085  (-0.009151  0.000402 -0.001238)
 39:   1743.83   0.001431    7.23  0.000256  ( 0.014694 -0.005682  0.002797)
 40:   3158.93   0.001532    7.74  0.000151  ( 0.005420  0.011042 -0.000258)
 41:   3169.58   0.000441    2.23  0.000043  ( 0.005065  0.004194  0.000416)
 42:   3186.20   0.000893    4.51  0.000087  (-0.006571 -0.006652  0.000234)
 43:   3193.77   0.000035    0.17  0.000003  ( 0.001590 -0.000857  0.000335)
 44:   3203.48   0.000690    3.49  0.000067  (-0.003860 -0.007186  0.000808)
 45:   3210.64   0.002005   10.13  0.000195  ( 0.007175 -0.011119  0.004449)
 46:   3218.09   0.000875    4.42  0.000085  ( 0.008510  0.003416  0.000881)
 47:   3258.18   0.000586    2.96  0.000056  ( 0.003805  0.006449 -0.000169)

--------------------------
THERMOCHEMISTRY AT 298.15K
--------------------------

Temperature         ... 298.15 K
Pressure            ... 1.00 atm
Total Mass          ... 104.15 AMU

Throughout the following assumptions are being made:
  (1) The electronic state is orbitally nondegenerate
  (2) There are no thermally accessible electronically excited states
  (3) Hindered rotations indicated by low frequency modes are not
      treated as such but are treated as vibrations and this may
      cause some error
  (4) All equations used are the standard statistical mechanics
      equations for an ideal gas
  (5) All vibrations are strictly harmonic

freq.      50.34  E(vib)   ...       0.52
freq.     212.01  E(vib)   ...       0.34
freq.     239.80  E(vib)   ...       0.31
freq.     415.40  E(vib)   ...       0.18
freq.     441.78  E(vib)   ...       0.17
freq.     459.35  E(vib)   ...       0.16
freq.     555.27  E(vib)   ...       0.12
freq.     629.07  E(vib)   ...       0.09
freq.     665.40  E(vib)   ...       0.08
freq.     726.31  E(vib)   ...       0.06
freq.     792.96  E(vib)   ...       0.05
freq.     818.22  E(vib)   ...       0.05
freq.     876.76  E(vib)   ...       0.04
freq.     956.92  E(vib)   ...       0.03
freq.     960.72  E(vib)   ...       0.03
freq.    1012.20  E(vib)   ...       0.02
freq.    1018.62  E(vib)   ...       0.02
freq.    1034.90  E(vib)   ...       0.02
freq.    1036.29  E(vib)   ...       0.02
freq.    1046.15  E(vib)   ...       0.02
freq.    1065.08  E(vib)   ...       0.02
freq.    1111.89  E(vib)   ...       0.01
freq.    1164.71  E(vib)   ...       0.01
freq.    1194.14  E(vib)   ...       0.01
freq.    1236.02  E(vib)   ...       0.01
freq.    1311.35  E(vib)   ...       0.01
freq.    1341.60  E(vib)   ...       0.01
freq.    1353.69  E(vib)   ...       0.01
freq.    1435.82  E(vib)   ...       0.00
freq.    1487.34  E(vib)   ...       0.00
freq.    1540.16  E(vib)   ...       0.00
freq.    1665.04  E(vib)   ...       0.00
freq.    1692.27  E(vib)   ...       0.00
freq.    1743.83  E(vib)   ...       0.00
freq.    3158.93  E(vib)   ...       0.00
freq.    3169.58  E(vib)   ...       0.00
freq.    3186.20  E(vib)   ...       0.00
freq.    3193.77  E(vib)   ...       0.00
freq.    3203.48  E(vib)   ...       0.00
freq.    3210.64  E(vib)   ...       0.00
freq.    3218.09  E(vib)   ...       0.00
freq.    3258.18  E(vib)   ...       0.00

------------
INNER ENERGY
------------

The inner energy is: U= E(el) + E(ZPE) + E(vib) + E(rot) + E(trans)
    E(el)   - is the total energy from the electronic structure calculation
              = E(kin-el) + E(nuc-el) + E(el-el) + E(nuc-nuc)
    E(ZPE)  - the the zero temperature vibrational energy from the frequency calculation
    E(vib)  - the the finite temperature correction to E(ZPE) due to population
              of excited vibrational states
    E(rot)  - is the rotational thermal energy
    E(trans)- is the translational thermal energy

Summary of contributions to the inner energy U:
Electronic energy                ...   -309.24594782 Eh
Zero point energy                ...      0.13416187 Eh      84.19 kcal/mol
Thermal vibrational correction   ...      0.00387796 Eh       2.43 kcal/mol
Thermal rotational correction    ...      0.00141627 Eh       0.89 kcal/mol
Thermal translational correction ...      0.00141627 Eh       0.89 kcal/mol
-----------------------------------------------------------------------
Total thermal energy                   -309.10507545 Eh

Summary of corrections to the electronic energy:
(perhaps to be used in another calculation)
Total thermal correction                  0.00671050 Eh       4.21 kcal/mol
Non-thermal (ZPE) correction              0.13416187 Eh      84.19 kcal/mol
-----------------------------------------------------------------------
Total correction                          0.14087237 Eh      88.40 kcal/mol

--------
ENTHALPY
--------

The enthalpy is H = U + kB*T
                kB is Boltzmann's constant
Total free energy                 ...   -309.10507545 Eh
Thermal Enthalpy correction       ...      0.00094421 Eh       0.59 kcal/mol
-----------------------------------------------------------------------
Total Enthalpy                    ...   -309.10413124 Eh

Note: Only C1 symmetry has been detected, increase convergence thresholds
      if your molecule has a higher symmetry. Symmetry factor of 1.0 is
      used for the rotational entropy correction.

Note: Rotational entropy computed according to Herzberg
Infrared and Raman Spectra, Chapter V,1, Van Nostrand Reinhold, 1945
Point Group:  C1, Symmetry Number:   1
Rotational constants in cm-1:     0.172019     0.051231     0.039523

Vibrational entropy computed according to the QRRHO of S. Grimme
Chem.Eur.J. 2012 18 9955

-------
ENTROPY
-------

The entropy contributions are T*S = T*(S(el)+S(vib)+S(rot)+S(trans))
     S(el)   - electronic entropy
     S(vib)  - vibrational entropy
     S(rot)  - rotational entropy
     S(trans)- translational entropy
The entropies will be listed as multiplied by the temperature to get
units of energy

Electronic entropy                ...      0.00000000 Eh      0.00 kcal/mol
Vibrational entropy               ...      0.00622225 Eh      3.90 kcal/mol
Rotational entropy                ...      0.01326980 Eh      8.33 kcal/mol
Translational entropy             ...      0.01892886 Eh     11.88 kcal/mol
-----------------------------------------------------------------------
Final entropy term                ...      0.03842091 Eh     24.11 kcal/mol

In case the symmetry of your molecule has not been determined correctly
or in case you have a reason to use a different symmetry number we print
out the resulting rotational entropy values for sn=1,12 :
 --------------------------------------------------------
|  sn= 1 | S(rot)=       0.01326980 Eh      8.33 kcal/mol|
|  sn= 2 | S(rot)=       0.01261535 Eh      7.92 kcal/mol|
|  sn= 3 | S(rot)=       0.01223252 Eh      7.68 kcal/mol|
|  sn= 4 | S(rot)=       0.01196089 Eh      7.51 kcal/mol|
|  sn= 5 | S(rot)=       0.01175020 Eh      7.37 kcal/mol|
|  sn= 6 | S(rot)=       0.01157806 Eh      7.27 kcal/mol|
|  sn= 7 | S(rot)=       0.01143251 Eh      7.17 kcal/mol|
|  sn= 8 | S(rot)=       0.01130643 Eh      7.09 kcal/mol|
|  sn= 9 | S(rot)=       0.01119523 Eh      7.03 kcal/mol|
|  sn=10 | S(rot)=       0.01109575 Eh      6.96 kcal/mol|
|  sn=11 | S(rot)=       0.01100576 Eh      6.91 kcal/mol|
|  sn=12 | S(rot)=       0.01092360 Eh      6.85 kcal/mol|
 --------------------------------------------------------

-------------------
GIBBS FREE ENERGY
-------------------

The Gibbs free energy is G = H - T*S

                             ****ORCA TERMINATED NORMALLY****
TOTAL RUN TIME: 0 days 0 hours 29 minutes 40 seconds 276 msec
