                         Program Version 5.0.1 -  RELEASE  -
|  1> #memory request in MB
|  2> %maxcore 1000
|  3>
|  4> #method, basis set, type of calculation
|  5> #(optimization followed by frequency calculation)
|  6> ! M062X GCP(DFT/631GD) TIGHTSCF OptTS Freq PAL2 Slowconv
|  7> %geom
|  8> maxiter 500
|  9> Calc_Hess true
| 10> Recalc_Hess 2
| 11> end
| 12> #xyz for cartesian coordinates, charge, spin multiplicity
| 13> *xyz 0 3
| 14> #atomic symbol, coordinates
| 15> #17
| 16> #symmetry c1
| 17> C       -0.052262000     -0.404272000     -0.144394000
| 18> C        0.255556000      0.944018000     -0.355006000
| 19> C        0.983265000     -1.279283000      0.192615000
| 20> H       -0.533858000      1.648691000     -0.583281000
| 21> H        0.754329000     -2.323185000      0.371442000
| 22> C        1.559724000      1.393618000     -0.247626000
| 23> C        2.290099000     -0.830021000      0.297244000
| 24> H        1.781273000      2.440609000     -0.409039000
| 25> H        3.080199000     -1.522701000      0.556328000
| 26> C        2.582449000      0.508282000      0.075156000
| 27> H        3.600918000      0.864176000      0.160056000
| 28> C       -1.412994000     -0.923332000     -0.249791000
| 29> H       -1.562665000     -1.928310000      0.131084000 M 2
| 30> C       -2.480161000     -0.256786000     -0.733737000
| 31> H       -2.391949000      0.712219000     -1.204117000
| 32> H       -3.444868000     -0.739859000     -0.803037000
| 33> O       -2.970818000      0.617570000      1.179055000
| 34> *
| 35>
| 36>
| 37>
| 38>
| 39>                          ****END OF INPUT****
 Total Charge           Charge          ....    0
 Multiplicity           Mult            ....    3
 Number of Electrons    NEL             ....   64
FINAL SINGLE POINT ENERGY      -384.218472743491
FINAL SINGLE POINT ENERGY      -384.219938384124
FINAL SINGLE POINT ENERGY      -384.219906519832
FINAL SINGLE POINT ENERGY      -384.219703049677
FINAL SINGLE POINT ENERGY      -384.219420103576
FINAL SINGLE POINT ENERGY      -384.219386967028
FINAL SINGLE POINT ENERGY      -384.219413816182
FINAL SINGLE POINT ENERGY      -384.219361812472
FINAL SINGLE POINT ENERGY      -384.219384718766
FINAL SINGLE POINT ENERGY      -384.219463652652
FINAL SINGLE POINT ENERGY      -384.219430418813
FINAL SINGLE POINT ENERGY      -384.219362771676
FINAL SINGLE POINT ENERGY      -384.219382436213
FINAL SINGLE POINT ENERGY      -384.219460461146
FINAL SINGLE POINT ENERGY      -384.219402642322
FINAL SINGLE POINT ENERGY      -384.219423884683
FINAL SINGLE POINT ENERGY      -384.219405740772
FINAL SINGLE POINT ENERGY      -384.219398096206
FINAL SINGLE POINT ENERGY      -384.219404619357
                    ***********************HURRAY********************

CARTESIAN COORDINATES (ANGSTROEM)
---------------------------------
  C     -0.049434   -0.399865   -0.157338
  C      0.273213    0.951287   -0.388931
  C      0.986614   -1.278956    0.205048
  H     -0.512588    1.665903   -0.650168
  H      0.751491   -2.330998    0.397721
  C      1.585860    1.398060   -0.271955
  C      2.301174   -0.831375    0.322050
  H      1.816708    2.451684   -0.454435
  H      3.092356   -1.531725    0.604878
  C      2.605786    0.509461    0.082895
  H      3.635610    0.865991    0.176530
  C     -1.414473   -0.919788   -0.269967
  H     -1.552936   -1.959589    0.049838
  C     -2.512249   -0.224440   -0.681130
  H     -2.438488    0.775012   -1.118232
  H     -3.473006   -0.731625   -0.803329
  O     -3.057402    0.512398    1.189479

 Multiplicity           Mult            ....    3
 Number of Electrons    NEL             ....   64
 Basis Dimension        Dim             ....  166

ORBITAL ENERGIES
----------------
                 SPIN UP ORBITALS
  NO   OCC          E(Eh)            E(eV)
   0   1.0000     -19.687319      -535.7192
   1   1.0000     -10.582446      -287.9630
   2   1.0000     -10.580264      -287.9036
   3   1.0000     -10.573619      -287.7228
   4   1.0000     -10.567552      -287.5577
   5   1.0000     -10.567500      -287.5563
   6   1.0000     -10.566793      -287.5371
   7   1.0000     -10.565560      -287.5035
   8   1.0000     -10.565260      -287.4953
   9   1.0000      -1.046850       -28.4862
  10   1.0000      -0.963702       -26.2237
  11   1.0000      -0.891359       -24.2551
  12   1.0000      -0.840941       -22.8832
  13   1.0000      -0.819241       -22.2927
  14   1.0000      -0.713035       -19.4027
  15   1.0000      -0.688330       -18.7304
  16   1.0000      -0.643618       -17.5137
  17   1.0000      -0.596528       -16.2323
  18   1.0000      -0.555147       -15.1063
  19   1.0000      -0.531370       -14.4593
  20   1.0000      -0.516605       -14.0575
  21   1.0000      -0.493769       -13.4361
  22   1.0000      -0.488364       -13.2891
  23   1.0000      -0.482367       -13.1259
  24   1.0000      -0.470262       -12.7965
  25   1.0000      -0.449841       -12.2408
  26   1.0000      -0.441421       -12.0117
  27   1.0000      -0.413429       -11.2500
  28   1.0000      -0.406173       -11.0525
  29   1.0000      -0.401547       -10.9266
  30   1.0000      -0.359129        -9.7724
  31   1.0000      -0.317277        -8.6335
  32   1.0000      -0.268486        -7.3059
  33   0.0000      -0.005440        -0.1480
  34   0.0000       0.019276         0.5245
  35   0.0000       0.086023         2.3408
  36   0.0000       0.097357         2.6492
  37   0.0000       0.112721         3.0673

                 SPIN DOWN ORBITALS
  NO   OCC          E(Eh)            E(eV)
   0   1.0000     -19.653759      -534.8060
   1   1.0000     -10.582918      -287.9758
   2   1.0000     -10.578068      -287.8439
   3   1.0000     -10.574167      -287.7377
   4   1.0000     -10.567152      -287.5468
   5   1.0000     -10.567110      -287.5457
   6   1.0000     -10.566468      -287.5282
   7   1.0000     -10.565723      -287.5079
   8   1.0000     -10.565410      -287.4994
   9   1.0000      -0.963151       -26.2087
  10   1.0000      -0.912855       -24.8400
  11   1.0000      -0.874707       -23.8020
  12   1.0000      -0.840133       -22.8612
  13   1.0000      -0.813016       -22.1233
  14   1.0000      -0.710240       -19.3266
  15   1.0000      -0.687496       -18.7077
  16   1.0000      -0.641277       -17.4500
  17   1.0000      -0.594312       -16.1720
  18   1.0000      -0.551881       -15.0175
  19   1.0000      -0.529870       -14.4185
  20   1.0000      -0.514513       -14.0006
  21   1.0000      -0.493097       -13.4179
  22   1.0000      -0.484948       -13.1961
  23   1.0000      -0.452586       -12.3155
  24   1.0000      -0.444023       -12.0825
  25   1.0000      -0.412329       -11.2200
  26   1.0000      -0.405070       -11.0225
  27   1.0000      -0.371629       -10.1125
  28   1.0000      -0.337991        -9.1972
  29   1.0000      -0.314693        -8.5632
  30   1.0000      -0.297025        -8.0825
  31   0.0000      -0.066330        -1.8049
  32   0.0000      -0.031826        -0.8660
  33   0.0000       0.017326         0.4715
  34   0.0000       0.023145         0.6298
  35   0.0000       0.097707         2.6587

MULLIKEN ATOMIC CHARGES AND SPIN POPULATIONS
--------------------------------------------
   0 C :    0.034309   -0.083004
   1 C :   -0.035700    0.072393
   2 C :   -0.043640    0.072586
   3 H :    0.015374   -0.004059
   4 H :    0.017724   -0.003201
   5 C :   -0.014693   -0.035405
   6 C :   -0.013704   -0.036760
   7 H :    0.024640    0.001123
   8 H :    0.025750    0.001190
   9 C :   -0.013906    0.074226
  10 H :    0.027222   -0.003509
  11 C :   -0.029068    0.371973
  12 H :    0.033064   -0.017961
  13 C :   -0.012618   -0.175724
  14 H :    0.068289    0.012884
  15 H :    0.066908    0.013720
  16 O :   -0.149953    1.739528
Sum of atomic charges         :    0.0000000

LOEWDIN ATOMIC CHARGES AND SPIN POPULATIONS
-------------------------------------------
   0 C :   -0.038253   -0.042863
   1 C :   -0.015101    0.054655
   2 C :   -0.018211    0.055714
   3 H :    0.033831   -0.000583
   4 H :    0.034152   -0.000601
   5 C :   -0.027689   -0.021148
   6 C :   -0.030287   -0.022319
   7 H :    0.036301    0.000028
   8 H :    0.036253    0.000022
   9 C :   -0.025627    0.057771
  10 H :    0.035611   -0.000346
  11 C :   -0.005050    0.295751
  12 H :    0.037002   -0.002429
  13 C :   -0.003112   -0.108640
  14 H :    0.032587    0.004576
  15 H :    0.039160    0.005797
  16 O :   -0.121567    1.724614

  Mayer bond orders larger than 0.100000
B(  0-C ,  1-C ) :   1.3484 B(  0-C ,  2-C ) :   1.3510 B(  0-C , 11-C ) :   1.0921
B(  1-C ,  3-H ) :   0.9795 B(  1-C ,  5-C ) :   1.4322 B(  2-C ,  4-H ) :   0.9900
B(  2-C ,  6-C ) :   1.4009 B(  5-C ,  7-H ) :   0.9826 B(  5-C ,  9-C ) :   1.3733
B(  6-C ,  8-H ) :   0.9844 B(  6-C ,  9-C ) :   1.3915 B(  9-C , 10-H ) :   0.9862
B( 11-C , 12-H ) :   0.9636 B( 11-C , 13-C ) :   1.6831 B( 11-C , 16-O ) :   0.1276
B( 13-C , 14-H ) :   0.9455 B( 13-C , 15-H ) :   0.9443 B( 13-C , 16-O ) :   0.3112

FINAL SINGLE POINT ENERGY      -384.219406484227

DIPOLE MOMENT
-------------
                                X             Y             Z
Electronic contribution:     -2.37002      -1.53742       1.43096
Nuclear contribution   :      2.85133       1.31949      -1.89688
                        -----------------------------------------
Total Dipole Moment    :      0.48131      -0.21793      -0.46593
                        -----------------------------------------
Magnitude (a.u.)       :      0.70444
Magnitude (Debye)      :      1.79055

VIBRATIONAL FREQUENCIES
-----------------------

Scaling factor for frequencies =  1.000000000  (already applied!)

   0:         0.00 cm**-1
   1:         0.00 cm**-1
   2:         0.00 cm**-1
   3:         0.00 cm**-1
   4:         0.00 cm**-1
   5:         0.00 cm**-1
   6:      -373.96 cm**-1 ***imaginary mode***
   7:        25.30 cm**-1
   8:        66.11 cm**-1
   9:       152.04 cm**-1
  10:       233.69 cm**-1
  11:       272.71 cm**-1
  12:       409.49 cm**-1
  13:       440.15 cm**-1
  14:       468.86 cm**-1
  15:       549.67 cm**-1
  16:       627.32 cm**-1
  17:       676.70 cm**-1
  18:       710.22 cm**-1
  19:       789.91 cm**-1
  20:       808.23 cm**-1
  21:       859.61 cm**-1
  22:       865.44 cm**-1
  23:       895.89 cm**-1
  24:       949.18 cm**-1
  25:       956.95 cm**-1
  26:      1010.36 cm**-1
  27:      1012.61 cm**-1
  28:      1037.75 cm**-1
  29:      1058.99 cm**-1
  30:      1104.73 cm**-1
  31:      1119.02 cm**-1
  32:      1165.39 cm**-1
  33:      1192.26 cm**-1
  34:      1242.81 cm**-1
  35:      1325.61 cm**-1
  36:      1353.82 cm**-1
  37:      1414.91 cm**-1
  38:      1484.13 cm**-1
  39:      1533.15 cm**-1
  40:      1608.02 cm**-1
  41:      1661.83 cm**-1
  42:      1683.49 cm**-1
  43:      2352.85 cm**-1
  44:      3173.49 cm**-1
  45:      3189.00 cm**-1
  46:      3196.94 cm**-1
  47:      3206.16 cm**-1
  48:      3213.49 cm**-1
  49:      3220.28 cm**-1
  50:      3268.19 cm**-1

IR SPECTRUM
-----------

 Mode   freq       eps      Int      T**2         TX        TY        TZ
       cm**-1   L/(mol*cm) km/mol    a.u.
----------------------------------------------------------------------------
  8:     66.11   0.000282    1.43  0.001333  (-0.035390 -0.008630  0.002439)
  9:    152.04   0.000353    1.78  0.000724  ( 0.022227 -0.004710  0.014416)
 10:    233.69   0.000185    0.93  0.000246  (-0.008781 -0.001358  0.012941)
 11:    272.71   0.000292    1.48  0.000335  ( 0.013918 -0.010050 -0.006312)
 12:    409.49   0.000035    0.18  0.000026  ( 0.003013 -0.000156 -0.004171)
 13:    440.15   0.000571    2.89  0.000405  ( 0.017929 -0.004280 -0.008082)
 14:    468.86   0.001346    6.80  0.000896  ( 0.007130  0.006416  0.028356)
 15:    549.67   0.001115    5.63  0.000633  (-0.023776 -0.000173  0.008227)
 16:    627.32   0.000004    0.02  0.000002  ( 0.001415  0.000264 -0.000346)
 17:    676.70   0.000080    0.40  0.000037  (-0.005675 -0.000710  0.002058)
 18:    710.22   0.006791   34.32  0.002984  (-0.008994  0.010422  0.052862)
 19:    789.91   0.000041    0.21  0.000016  (-0.001214 -0.000516 -0.003828)
 20:    808.23   0.005428   27.43  0.002096  (-0.002884  0.010581  0.044448)
 21:    859.61   0.000344    1.74  0.000125  (-0.004748 -0.005992 -0.008149)
 22:    865.44   0.000312    1.58  0.000112  ( 0.010083  0.000372 -0.003264)
 23:    895.89   0.001413    7.14  0.000492  (-0.013269  0.000033  0.017783)
 24:    949.18   0.010567   53.40  0.003474  ( 0.032078 -0.023151 -0.043693)
 25:    956.95   0.007243   36.60  0.002362  (-0.018599  0.017542  0.041333)
 26:   1010.36   0.000062    0.31  0.000019  ( 0.003828  0.001268  0.001690)
 27:   1012.61   0.000012    0.06  0.000004  ( 0.001281  0.000502  0.001376)
 28:   1037.75   0.000011    0.05  0.000003  ( 0.000725 -0.000814 -0.001423)
 29:   1058.99   0.000412    2.08  0.000121  (-0.010466 -0.003364 -0.000701)
 30:   1104.73   0.000476    2.41  0.000135  ( 0.002994 -0.011198  0.000411)
 31:   1119.02   0.000557    2.82  0.000155  (-0.003406  0.011467 -0.003502)
 32:   1165.39   0.000049    0.25  0.000013  (-0.003312  0.000085 -0.001438)
 33:   1192.26   0.000194    0.98  0.000051  (-0.007076  0.000804 -0.000184)
 34:   1242.81   0.001756    8.87  0.000441  ( 0.016315  0.002013  0.013062)
 35:   1325.61   0.000466    2.35  0.000110  ( 0.009245  0.004914 -0.000267)
 36:   1353.82   0.000195    0.99  0.000045  ( 0.005729 -0.003417  0.000709)
 37:   1414.91   0.003014   15.23  0.000665  (-0.012195 -0.008397  0.021108)
 38:   1484.13   0.001541    7.79  0.000324  ( 0.004273  0.016734 -0.005074)
 39:   1533.15   0.002308   11.66  0.000470  (-0.021480  0.001136 -0.002646)
 40:   1608.02   0.012391   62.62  0.002405  ( 0.038058 -0.022149 -0.021581)
 41:   1661.83   0.000231    1.17  0.000043  (-0.003476 -0.000876  0.005528)
 42:   1683.49   0.000114    0.58  0.000021  (-0.003306 -0.001825  0.002629)
 43:   2352.85   0.001122    5.67  0.000149  ( 0.004833  0.010456  0.004022)
 44:   3173.49   0.000702    3.55  0.000069  (-0.005857  0.000911  0.005823)
 45:   3189.00   0.000581    2.93  0.000057  (-0.005413 -0.005239  0.000276)
 46:   3196.94   0.000026    0.13  0.000003  ( 0.001290 -0.000884  0.000347)
 47:   3206.16   0.000586    2.96  0.000057  (-0.001715 -0.007355  0.000174)
 48:   3213.49   0.001326    6.70  0.000129  ( 0.005865 -0.008900  0.003896)
 49:   3220.28   0.000866    4.38  0.000084  ( 0.008588  0.003150 -0.000506)
 50:   3268.19   0.000024    0.12  0.000002  ( 0.000433  0.000991 -0.001042)

--------------------------
THERMOCHEMISTRY AT 298.15K
--------------------------

Temperature         ... 298.15 K
Pressure            ... 1.00 atm
Total Mass          ... 121.14 AMU

Throughout the following assumptions are being made:
  (1) The electronic state is orbitally nondegenerate
      but the spin degeneracy is treated
  (2) There are no thermally accessible electronically excited states
  (3) Hindered rotations indicated by low frequency modes are not
      treated as such but are treated as vibrations and this may
      cause some error
  (4) All equations used are the standard statistical mechanics
      equations for an ideal gas
  (5) All vibrations are strictly harmonic

freq.      66.11  E(vib)   ...       0.50
freq.     152.04  E(vib)   ...       0.40
freq.     233.69  E(vib)   ...       0.32
freq.     272.71  E(vib)   ...       0.29
freq.     409.49  E(vib)   ...       0.19
freq.     440.15  E(vib)   ...       0.17
freq.     468.86  E(vib)   ...       0.16
freq.     549.67  E(vib)   ...       0.12
freq.     627.32  E(vib)   ...       0.09
freq.     676.70  E(vib)   ...       0.08
freq.     710.22  E(vib)   ...       0.07
freq.     789.91  E(vib)   ...       0.05
freq.     808.23  E(vib)   ...       0.05
freq.     859.61  E(vib)   ...       0.04
freq.     865.44  E(vib)   ...       0.04
freq.     895.89  E(vib)   ...       0.03
freq.     949.18  E(vib)   ...       0.03
freq.     956.95  E(vib)   ...       0.03
freq.    1010.36  E(vib)   ...       0.02
freq.    1012.61  E(vib)   ...       0.02
freq.    1037.75  E(vib)   ...       0.02
freq.    1058.99  E(vib)   ...       0.02
freq.    1104.73  E(vib)   ...       0.02
freq.    1119.02  E(vib)   ...       0.01
freq.    1165.39  E(vib)   ...       0.01
freq.    1192.26  E(vib)   ...       0.01
freq.    1242.81  E(vib)   ...       0.01
freq.    1325.61  E(vib)   ...       0.01
freq.    1353.82  E(vib)   ...       0.01
freq.    1414.91  E(vib)   ...       0.00
freq.    1484.13  E(vib)   ...       0.00
freq.    1533.15  E(vib)   ...       0.00
freq.    1608.02  E(vib)   ...       0.00
freq.    1661.83  E(vib)   ...       0.00
freq.    1683.49  E(vib)   ...       0.00
freq.    2352.85  E(vib)   ...       0.00
freq.    3173.49  E(vib)   ...       0.00
freq.    3189.00  E(vib)   ...       0.00
freq.    3196.94  E(vib)   ...       0.00
freq.    3206.16  E(vib)   ...       0.00
freq.    3213.49  E(vib)   ...       0.00
freq.    3220.28  E(vib)   ...       0.00
freq.    3268.19  E(vib)   ...       0.00

------------
INNER ENERGY
------------

The inner energy is: U= E(el) + E(ZPE) + E(vib) + E(rot) + E(trans)
    E(el)   - is the total energy from the electronic structure calculation
              = E(kin-el) + E(nuc-el) + E(el-el) + E(nuc-nuc)
    E(ZPE)  - the the zero temperature vibrational energy from the frequency calculation
    E(vib)  - the the finite temperature correction to E(ZPE) due to population
              of excited vibrational states
    E(rot)  - is the rotational thermal energy
    E(trans)- is the translational thermal energy

Summary of contributions to the inner energy U:
Electronic energy                ...   -384.21940648 Eh
Zero point energy                ...      0.13113460 Eh      82.29 kcal/mol
Thermal vibrational correction   ...      0.00449232 Eh       2.82 kcal/mol
Thermal rotational correction    ...      0.00141627 Eh       0.89 kcal/mol
Thermal translational correction ...      0.00141627 Eh       0.89 kcal/mol
-----------------------------------------------------------------------
Total thermal energy                   -384.08094703 Eh

Summary of corrections to the electronic energy:
(perhaps to be used in another calculation)
Total thermal correction                  0.00732486 Eh       4.60 kcal/mol
Non-thermal (ZPE) correction              0.13113460 Eh      82.29 kcal/mol
-----------------------------------------------------------------------
Total correction                          0.13845946 Eh      86.88 kcal/mol

--------
ENTHALPY
--------

The enthalpy is H = U + kB*T
                kB is Boltzmann's constant
Total free energy                 ...   -384.08094703 Eh
Thermal Enthalpy correction       ...      0.00094421 Eh       0.59 kcal/mol
-----------------------------------------------------------------------
Total Enthalpy                    ...   -384.08000282 Eh

Note: Only C1 symmetry has been detected, increase convergence thresholds
      if your molecule has a higher symmetry. Symmetry factor of 1.0 is
      used for the rotational entropy correction.

Note: Rotational entropy computed according to Herzberg
Infrared and Raman Spectra, Chapter V,1, Van Nostrand Reinhold, 1945
Point Group:  C1, Symmetry Number:   1
Rotational constants in cm-1:     0.116825     0.032139     0.028254

Vibrational entropy computed according to the QRRHO of S. Grimme
Chem.Eur.J. 2012 18 9955

-------
ENTROPY
-------

The entropy contributions are T*S = T*(S(el)+S(vib)+S(rot)+S(trans))
     S(el)   - electronic entropy
     S(vib)  - vibrational entropy
     S(rot)  - rotational entropy
     S(trans)- translational entropy
The entropies will be listed as multiplied by the temperature to get
units of energy

Electronic entropy                ...      0.00103729 Eh      0.65 kcal/mol
Vibrational entropy               ...      0.00729418 Eh      4.58 kcal/mol
Rotational entropy                ...      0.01383104 Eh      8.68 kcal/mol
Translational entropy             ...      0.01914289 Eh     12.01 kcal/mol
-----------------------------------------------------------------------
Final entropy term                ...      0.04130540 Eh     25.92 kcal/mol

In case the symmetry of your molecule has not been determined correctly
or in case you have a reason to use a different symmetry number we print
out the resulting rotational entropy values for sn=1,12 :
 --------------------------------------------------------
|  sn= 1 | S(rot)=       0.01383104 Eh      8.68 kcal/mol|
|  sn= 2 | S(rot)=       0.01317659 Eh      8.27 kcal/mol|
|  sn= 3 | S(rot)=       0.01279376 Eh      8.03 kcal/mol|
|  sn= 4 | S(rot)=       0.01252213 Eh      7.86 kcal/mol|
|  sn= 5 | S(rot)=       0.01231144 Eh      7.73 kcal/mol|
|  sn= 6 | S(rot)=       0.01213930 Eh      7.62 kcal/mol|
|  sn= 7 | S(rot)=       0.01199375 Eh      7.53 kcal/mol|
|  sn= 8 | S(rot)=       0.01186768 Eh      7.45 kcal/mol|
|  sn= 9 | S(rot)=       0.01175647 Eh      7.38 kcal/mol|
|  sn=10 | S(rot)=       0.01165699 Eh      7.31 kcal/mol|
|  sn=11 | S(rot)=       0.01156700 Eh      7.26 kcal/mol|
|  sn=12 | S(rot)=       0.01148484 Eh      7.21 kcal/mol|
 --------------------------------------------------------

-------------------
GIBBS FREE ENERGY
-------------------

                             ****ORCA TERMINATED NORMALLY****
TOTAL RUN TIME: 0 days 6 hours 47 minutes 30 seconds 453 msec
