                         Program Version 5.0.1 -  RELEASE  -
|  1> #memory request in MB
|  2> %maxcore 1000
|  3>
|  4> #method, basis set, type of calculation
|  5> #(optimization followed by frequency calculation)
|  6> ! M062X GCP(DFT/631GD) TIGHTSCF OptTS Freq PAL2 Slowconv
|  7> %geom
|  8> maxiter 500
|  9> Calc_Hess true
| 10> Recalc_Hess 2
| 11> end
| 12> #xyz for cartesian coordinates, charge, spin multiplicity
| 13> *xyz 0 3
| 14> #atomic symbol, coordinates
| 15> #17
| 16> #symmetry c1
| 17> C       -0.052262000     -0.404272000     -0.144394000
| 18> C        0.255556000      0.944018000     -0.355006000
| 19> C        0.983265000     -1.279283000      0.192615000
| 20> H       -0.533858000      1.648691000     -0.583281000
| 21> H        0.754329000     -2.323185000      0.371442000
| 22> C        1.559724000      1.393618000     -0.247626000
| 23> C        2.290099000     -0.830021000      0.297244000
| 24> H        1.781273000      2.440609000     -0.409039000
| 25> H        3.080199000     -1.522701000      0.556328000
| 26> C        2.582449000      0.508282000      0.075156000
| 27> H        3.600918000      0.864176000      0.160056000
| 28> C       -1.412994000     -0.923332000     -0.249791000
| 29> H       -1.562665000     -1.928310000      0.131084000
| 30> C       -2.480161000     -0.256786000     -0.733737000
| 31> H       -2.391949000      0.712219000     -1.204117000
| 32> H       -3.444868000     -0.739859000     -0.803037000
| 33> O       -2.970818000      0.617570000      1.179055000
| 34> *
| 35>
| 36>
| 37>
| 38>
| 39>                          ****END OF INPUT****
 Total Charge           Charge          ....    0
 Multiplicity           Mult            ....    3
 Number of Electrons    NEL             ....   64
FINAL SINGLE POINT ENERGY      -384.218472743047
FINAL SINGLE POINT ENERGY      -384.219938384378
FINAL SINGLE POINT ENERGY      -384.219906521443
FINAL SINGLE POINT ENERGY      -384.219703050724
FINAL SINGLE POINT ENERGY      -384.219420103513
FINAL SINGLE POINT ENERGY      -384.219386966614
FINAL SINGLE POINT ENERGY      -384.219413815959
FINAL SINGLE POINT ENERGY      -384.219361811063
FINAL SINGLE POINT ENERGY      -384.219384716352
FINAL SINGLE POINT ENERGY      -384.219463648976
FINAL SINGLE POINT ENERGY      -384.219430446389
FINAL SINGLE POINT ENERGY      -384.219362781491
FINAL SINGLE POINT ENERGY      -384.219382451105
FINAL SINGLE POINT ENERGY      -384.219460481071
FINAL SINGLE POINT ENERGY      -384.219402652703
FINAL SINGLE POINT ENERGY      -384.219423821692
FINAL SINGLE POINT ENERGY      -384.219405741495
FINAL SINGLE POINT ENERGY      -384.219398101703
FINAL SINGLE POINT ENERGY      -384.219404619496
                    ***********************HURRAY********************

CARTESIAN COORDINATES (ANGSTROEM)
---------------------------------
  C     -0.049434   -0.399866   -0.157337
  C      0.273213    0.951287   -0.388930
  C      0.986614   -1.278956    0.205047
  H     -0.512588    1.665904   -0.650165
  H      0.751492   -2.330998    0.397720
  C      1.585859    1.398060   -0.271954
  C      2.301174   -0.831375    0.322048
  H      1.816707    2.451684   -0.454433
  H      3.092357   -1.531725    0.604876
  C      2.605786    0.509461    0.082894
  H      3.635610    0.865991    0.176529
  C     -1.414473   -0.919789   -0.269966
  H     -1.552936   -1.959589    0.049841
  C     -2.512249   -0.224441   -0.681131
  H     -2.438487    0.775010   -1.118235
  H     -3.473006   -0.731626   -0.803329
  O     -3.057402    0.512403    1.189476

 Multiplicity           Mult            ....    3
 Number of Electrons    NEL             ....   64
 Basis Dimension        Dim             ....  166

ORBITAL ENERGIES
----------------
                 SPIN UP ORBITALS
  NO   OCC          E(Eh)            E(eV)
   0   1.0000     -19.687319      -535.7192
   1   1.0000     -10.582446      -287.9630
   2   1.0000     -10.580264      -287.9036
   3   1.0000     -10.573619      -287.7228
   4   1.0000     -10.567552      -287.5577
   5   1.0000     -10.567500      -287.5563
   6   1.0000     -10.566793      -287.5371
   7   1.0000     -10.565560      -287.5035
   8   1.0000     -10.565260      -287.4953
   9   1.0000      -1.046850       -28.4862
  10   1.0000      -0.963702       -26.2237
  11   1.0000      -0.891359       -24.2551
  12   1.0000      -0.840941       -22.8832
  13   1.0000      -0.819241       -22.2927
  14   1.0000      -0.713035       -19.4027
  15   1.0000      -0.688330       -18.7304
  16   1.0000      -0.643618       -17.5137
  17   1.0000      -0.596528       -16.2323
  18   1.0000      -0.555147       -15.1063
  19   1.0000      -0.531370       -14.4593
  20   1.0000      -0.516605       -14.0575
  21   1.0000      -0.493769       -13.4361
  22   1.0000      -0.488364       -13.2891
  23   1.0000      -0.482367       -13.1259
  24   1.0000      -0.470262       -12.7965
  25   1.0000      -0.449841       -12.2408
  26   1.0000      -0.441421       -12.0117
  27   1.0000      -0.413429       -11.2500
  28   1.0000      -0.406173       -11.0525
  29   1.0000      -0.401547       -10.9266
  30   1.0000      -0.359129        -9.7724
  31   1.0000      -0.317277        -8.6335
  32   1.0000      -0.268486        -7.3059
  33   0.0000      -0.005440        -0.1480
  34   0.0000       0.019276         0.5245
  35   0.0000       0.086023         2.3408
  36   0.0000       0.097357         2.6492
  37   0.0000       0.112721         3.0673

                 SPIN DOWN ORBITALS
  NO   OCC          E(Eh)            E(eV)
   0   1.0000     -19.653759      -534.8060
   1   1.0000     -10.582918      -287.9758
   2   1.0000     -10.578068      -287.8439
   3   1.0000     -10.574167      -287.7377
   4   1.0000     -10.567152      -287.5468
   5   1.0000     -10.567110      -287.5457
   6   1.0000     -10.566468      -287.5282
   7   1.0000     -10.565723      -287.5079
   8   1.0000     -10.565410      -287.4994
   9   1.0000      -0.963151       -26.2087
  10   1.0000      -0.912855       -24.8400
  11   1.0000      -0.874708       -23.8020
  12   1.0000      -0.840133       -22.8612
  13   1.0000      -0.813016       -22.1233
  14   1.0000      -0.710240       -19.3266
  15   1.0000      -0.687496       -18.7077
  16   1.0000      -0.641277       -17.4500
  17   1.0000      -0.594312       -16.1720
  18   1.0000      -0.551881       -15.0175
  19   1.0000      -0.529870       -14.4185
  20   1.0000      -0.514513       -14.0006
  21   1.0000      -0.493097       -13.4179
  22   1.0000      -0.484948       -13.1961
  23   1.0000      -0.452586       -12.3155
  24   1.0000      -0.444023       -12.0825
  25   1.0000      -0.412329       -11.2200
  26   1.0000      -0.405070       -11.0225
  27   1.0000      -0.371629       -10.1125
  28   1.0000      -0.337991        -9.1972
  29   1.0000      -0.314693        -8.5632
  30   1.0000      -0.297025        -8.0825
  31   0.0000      -0.066330        -1.8049
  32   0.0000      -0.031826        -0.8660
  33   0.0000       0.017326         0.4715
  34   0.0000       0.023145         0.6298
  35   0.0000       0.097707         2.6587

MULLIKEN ATOMIC CHARGES AND SPIN POPULATIONS
--------------------------------------------
   0 C :    0.034309   -0.083004
   1 C :   -0.035700    0.072393
   2 C :   -0.043640    0.072586
   3 H :    0.015374   -0.004059
   4 H :    0.017724   -0.003201
   5 C :   -0.014693   -0.035405
   6 C :   -0.013704   -0.036759
   7 H :    0.024640    0.001123
   8 H :    0.025750    0.001190
   9 C :   -0.013906    0.074226
  10 H :    0.027222   -0.003509
  11 C :   -0.029068    0.371973
  12 H :    0.033064   -0.017961
  13 C :   -0.012618   -0.175724
  14 H :    0.068289    0.012884
  15 H :    0.066908    0.013720
  16 O :   -0.149953    1.739528
Sum of atomic charges         :   -0.0000000

LOEWDIN ATOMIC CHARGES AND SPIN POPULATIONS
-------------------------------------------
   0 C :   -0.038253   -0.042863
   1 C :   -0.015101    0.054655
   2 C :   -0.018211    0.055714
   3 H :    0.033831   -0.000583
   4 H :    0.034152   -0.000601
   5 C :   -0.027689   -0.021148
   6 C :   -0.030287   -0.022319
   7 H :    0.036301    0.000028
   8 H :    0.036253    0.000022
   9 C :   -0.025627    0.057771
  10 H :    0.035611   -0.000346
  11 C :   -0.005050    0.295751
  12 H :    0.037002   -0.002429
  13 C :   -0.003112   -0.108640
  14 H :    0.032587    0.004576
  15 H :    0.039160    0.005797
  16 O :   -0.121567    1.724614

  Mayer bond orders larger than 0.100000
B(  0-C ,  1-C ) :   1.3484 B(  0-C ,  2-C ) :   1.3510 B(  0-C , 11-C ) :   1.0921
B(  1-C ,  3-H ) :   0.9795 B(  1-C ,  5-C ) :   1.4322 B(  2-C ,  4-H ) :   0.9900
B(  2-C ,  6-C ) :   1.4009 B(  5-C ,  7-H ) :   0.9826 B(  5-C ,  9-C ) :   1.3733
B(  6-C ,  8-H ) :   0.9844 B(  6-C ,  9-C ) :   1.3915 B(  9-C , 10-H ) :   0.9862
B( 11-C , 12-H ) :   0.9636 B( 11-C , 13-C ) :   1.6831 B( 11-C , 16-O ) :   0.1276
B( 13-C , 14-H ) :   0.9455 B( 13-C , 15-H ) :   0.9443 B( 13-C , 16-O ) :   0.3112

FINAL SINGLE POINT ENERGY      -384.219406486230

DIPOLE MOMENT
-------------
                                X             Y             Z
Electronic contribution:     -0.85041       0.38548       1.40875
Nuclear contribution   :      1.33172      -0.60341      -1.87468
                        -----------------------------------------
Total Dipole Moment    :      0.48131      -0.21793      -0.46593
                        -----------------------------------------
Magnitude (a.u.)       :      0.70444
Magnitude (Debye)      :      1.79055

VIBRATIONAL FREQUENCIES
-----------------------

Scaling factor for frequencies =  1.000000000  (already applied!)

   0:         0.00 cm**-1
   1:         0.00 cm**-1
   2:         0.00 cm**-1
   3:         0.00 cm**-1
   4:         0.00 cm**-1
   5:         0.00 cm**-1
   6:      -374.26 cm**-1 ***imaginary mode***
   7:        25.07 cm**-1
   8:        66.24 cm**-1
   9:       152.77 cm**-1
  10:       243.33 cm**-1
  11:       291.67 cm**-1
  12:       409.61 cm**-1
  13:       448.14 cm**-1
  14:       481.44 cm**-1
  15:       556.52 cm**-1
  16:       627.43 cm**-1
  17:       697.48 cm**-1
  18:       723.33 cm**-1
  19:       797.03 cm**-1
  20:       816.50 cm**-1
  21:       864.20 cm**-1
  22:       946.91 cm**-1
  23:       951.67 cm**-1
  24:       981.18 cm**-1
  25:      1010.39 cm**-1
  26:      1012.65 cm**-1
  27:      1033.37 cm**-1
  28:      1038.51 cm**-1
  29:      1062.60 cm**-1
  30:      1113.14 cm**-1
  31:      1165.41 cm**-1
  32:      1191.64 cm**-1
  33:      1235.26 cm**-1
  34:      1294.72 cm**-1
  35:      1333.12 cm**-1
  36:      1354.05 cm**-1
  37:      1429.58 cm**-1
  38:      1485.76 cm**-1
  39:      1535.00 cm**-1
  40:      1620.14 cm**-1
  41:      1665.40 cm**-1
  42:      1683.75 cm**-1
  43:      3171.33 cm**-1
  44:      3178.40 cm**-1
  45:      3189.06 cm**-1
  46:      3196.94 cm**-1
  47:      3206.18 cm**-1
  48:      3213.50 cm**-1
  49:      3220.29 cm**-1
  50:      3268.71 cm**-1

IR SPECTRUM
-----------

 Mode   freq       eps      Int      T**2         TX        TY        TZ
       cm**-1   L/(mol*cm) km/mol    a.u.
----------------------------------------------------------------------------
  8:     66.24   0.000283    1.43  0.001331  ( 0.035445  0.008319 -0.002358)
  9:    152.77   0.000349    1.76  0.000713  (-0.021781  0.004318 -0.014814)
 10:    243.33   0.000132    0.67  0.000169  ( 0.006122  0.004480 -0.010552)
 11:    291.67   0.000395    2.00  0.000423  (-0.017050  0.008408  0.007844)
 12:    409.61   0.000032    0.16  0.000025  (-0.003231  0.000031  0.003776)
 13:    448.14   0.000641    3.24  0.000446  (-0.020011  0.004272  0.005235)
 14:    481.44   0.001582    7.99  0.001025  (-0.001593 -0.007021 -0.031202)
 15:    556.52   0.001136    5.74  0.000637  ( 0.023942  0.000147 -0.007984)
 16:    627.43   0.000004    0.02  0.000002  (-0.001407 -0.000294  0.000118)
 17:    697.48   0.001601    8.09  0.000716  ( 0.002116 -0.005727 -0.026055)
 18:    723.33   0.006153   31.09  0.002654  ( 0.008020 -0.009838 -0.049933)
 19:    797.03   0.000081    0.41  0.000032  ( 0.002658 -0.000503 -0.004955)
 20:    816.50   0.003717   18.78  0.001421  ( 0.003415 -0.008475 -0.036566)
 21:    864.20   0.000233    1.18  0.000084  ( 0.005140 -0.003279 -0.006854)
 22:    946.91   0.011983   60.56  0.003949  (-0.033313  0.023065  0.048036)
 23:    951.67   0.005756   29.09  0.001888  (-0.023553  0.013413  0.033955)
 24:    981.18   0.003336   16.86  0.001061  ( 0.001305  0.011920  0.030285)
 25:   1010.39   0.000040    0.20  0.000012  (-0.003428 -0.000463 -0.000619)
 26:   1012.65   0.000023    0.11  0.000007  ( 0.001032  0.000581  0.002365)
 27:   1033.37   0.000524    2.65  0.000158  (-0.009610 -0.008040  0.001157)
 28:   1038.51   0.000101    0.51  0.000030  (-0.004099 -0.001292  0.003434)
 29:   1062.60   0.000186    0.94  0.000055  (-0.007308 -0.000442 -0.000972)
 30:   1113.14   0.000991    5.01  0.000278  ( 0.005404 -0.015577  0.002448)
 31:   1165.41   0.000048    0.24  0.000013  ( 0.003327 -0.000070  0.001302)
 32:   1191.64   0.000266    1.34  0.000070  ( 0.008329 -0.000324 -0.000375)
 33:   1235.26   0.001573    7.95  0.000397  ( 0.018750  0.003302  0.005903)
 34:   1294.72   0.001116    5.64  0.000269  (-0.003619 -0.000470 -0.015986)
 35:   1333.12   0.001090    5.51  0.000255  (-0.013125 -0.005819  0.007004)
 36:   1354.05   0.000263    1.33  0.000061  (-0.007171  0.003010  0.000200)
 37:   1429.58   0.001977    9.99  0.000432  ( 0.006524  0.009710 -0.017168)
 38:   1485.76   0.001479    7.47  0.000311  (-0.006372 -0.015666  0.004964)
 39:   1535.00   0.001758    8.88  0.000357  ( 0.018554 -0.000587  0.003567)
 40:   1620.14   0.011969   60.49  0.002305  (-0.036597  0.023098  0.020797)
 41:   1665.40   0.000758    3.83  0.000142  ( 0.007990 -0.002601 -0.008457)
 42:   1683.75   0.000086    0.44  0.000016  ( 0.002510  0.002494 -0.001864)
 43:   3171.33   0.000944    4.77  0.000093  (-0.007765 -0.004333  0.003717)
 44:   3178.40   0.000907    4.58  0.000089  (-0.000952 -0.007997 -0.004916)
 45:   3189.06   0.000682    3.44  0.000067  ( 0.005681  0.005867 -0.000057)
 46:   3196.94   0.000026    0.13  0.000003  (-0.001291  0.000881 -0.000347)
 47:   3206.18   0.000631    3.19  0.000061  ( 0.001841  0.007615 -0.000115)
 48:   3213.50   0.001314    6.64  0.000128  (-0.005940  0.008766 -0.003927)
 49:   3220.29   0.000848    4.29  0.000082  (-0.008524 -0.003047  0.000536)
 50:   3268.71   0.000045    0.23  0.000004  (-0.000817 -0.001676  0.000888)

--------------------------
THERMOCHEMISTRY AT 298.15K
--------------------------

Temperature         ... 298.15 K
Pressure            ... 1.00 atm
Total Mass          ... 120.15 AMU

Throughout the following assumptions are being made:
  (1) The electronic state is orbitally nondegenerate
      but the spin degeneracy is treated
  (2) There are no thermally accessible electronically excited states
  (3) Hindered rotations indicated by low frequency modes are not
      treated as such but are treated as vibrations and this may
      cause some error
  (4) All equations used are the standard statistical mechanics
      equations for an ideal gas
  (5) All vibrations are strictly harmonic

freq.      66.24  E(vib)   ...       0.50
freq.     152.77  E(vib)   ...       0.40
freq.     243.33  E(vib)   ...       0.31
freq.     291.67  E(vib)   ...       0.27
freq.     409.61  E(vib)   ...       0.19
freq.     448.14  E(vib)   ...       0.17
freq.     481.44  E(vib)   ...       0.15
freq.     556.52  E(vib)   ...       0.12
freq.     627.43  E(vib)   ...       0.09
freq.     697.48  E(vib)   ...       0.07
freq.     723.33  E(vib)   ...       0.07
freq.     797.03  E(vib)   ...       0.05
freq.     816.50  E(vib)   ...       0.05
freq.     864.20  E(vib)   ...       0.04
freq.     946.91  E(vib)   ...       0.03
freq.     951.67  E(vib)   ...       0.03
freq.     981.18  E(vib)   ...       0.02
freq.    1010.39  E(vib)   ...       0.02
freq.    1012.65  E(vib)   ...       0.02
freq.    1033.37  E(vib)   ...       0.02
freq.    1038.51  E(vib)   ...       0.02
freq.    1062.60  E(vib)   ...       0.02
freq.    1113.14  E(vib)   ...       0.01
freq.    1165.41  E(vib)   ...       0.01
freq.    1191.64  E(vib)   ...       0.01
freq.    1235.26  E(vib)   ...       0.01
freq.    1294.72  E(vib)   ...       0.01
freq.    1333.12  E(vib)   ...       0.01
freq.    1354.05  E(vib)   ...       0.01
freq.    1429.58  E(vib)   ...       0.00
freq.    1485.76  E(vib)   ...       0.00
freq.    1535.00  E(vib)   ...       0.00
freq.    1620.14  E(vib)   ...       0.00
freq.    1665.40  E(vib)   ...       0.00
freq.    1683.75  E(vib)   ...       0.00
freq.    3171.33  E(vib)   ...       0.00
freq.    3178.40  E(vib)   ...       0.00
freq.    3189.06  E(vib)   ...       0.00
freq.    3196.94  E(vib)   ...       0.00
freq.    3206.18  E(vib)   ...       0.00
freq.    3213.50  E(vib)   ...       0.00
freq.    3220.29  E(vib)   ...       0.00
freq.    3268.71  E(vib)   ...       0.00

------------
INNER ENERGY
------------

The inner energy is: U= E(el) + E(ZPE) + E(vib) + E(rot) + E(trans)
    E(el)   - is the total energy from the electronic structure calculation
              = E(kin-el) + E(nuc-el) + E(el-el) + E(nuc-nuc)
    E(ZPE)  - the the zero temperature vibrational energy from the frequency calculation
    E(vib)  - the the finite temperature correction to E(ZPE) due to population
              of excited vibrational states
    E(rot)  - is the rotational thermal energy
    E(trans)- is the translational thermal energy

Summary of contributions to the inner energy U:
Electronic energy                ...   -384.21940649 Eh
Zero point energy                ...      0.13433064 Eh      84.29 kcal/mol
Thermal vibrational correction   ...      0.00435491 Eh       2.73 kcal/mol
Thermal rotational correction    ...      0.00141627 Eh       0.89 kcal/mol
Thermal translational correction ...      0.00141627 Eh       0.89 kcal/mol
-----------------------------------------------------------------------
Total thermal energy                   -384.07788840 Eh

Summary of corrections to the electronic energy:
(perhaps to be used in another calculation)
Total thermal correction                  0.00718745 Eh       4.51 kcal/mol
Non-thermal (ZPE) correction              0.13433064 Eh      84.29 kcal/mol
-----------------------------------------------------------------------
Total correction                          0.14151809 Eh      88.80 kcal/mol

--------
ENTHALPY
--------

The enthalpy is H = U + kB*T
                kB is Boltzmann's constant
Total free energy                 ...   -384.07788840 Eh
Thermal Enthalpy correction       ...      0.00094421 Eh       0.59 kcal/mol
-----------------------------------------------------------------------
Total Enthalpy                    ...   -384.07694419 Eh

Note: Only C1 symmetry has been detected, increase convergence thresholds
      if your molecule has a higher symmetry. Symmetry factor of 1.0 is
      used for the rotational entropy correction.

Note: Rotational entropy computed according to Herzberg
Infrared and Raman Spectra, Chapter V,1, Van Nostrand Reinhold, 1945
Point Group:  C1, Symmetry Number:   1
Rotational constants in cm-1:     0.119767     0.032293     0.028542

Vibrational entropy computed according to the QRRHO of S. Grimme
Chem.Eur.J. 2012 18 9955

-------
ENTROPY
-------

The entropy contributions are T*S = T*(S(el)+S(vib)+S(rot)+S(trans))
     S(el)   - electronic entropy
     S(vib)  - vibrational entropy
     S(rot)  - rotational entropy
     S(trans)- translational entropy
The entropies will be listed as multiplied by the temperature to get
units of energy

Electronic entropy                ...      0.00103729 Eh      0.65 kcal/mol
Vibrational entropy               ...      0.00706758 Eh      4.43 kcal/mol
Rotational entropy                ...      0.01381227 Eh      8.67 kcal/mol
Translational entropy             ...      0.01913124 Eh     12.01 kcal/mol
-----------------------------------------------------------------------
Final entropy term                ...      0.04104838 Eh     25.76 kcal/mol

In case the symmetry of your molecule has not been determined correctly
or in case you have a reason to use a different symmetry number we print
out the resulting rotational entropy values for sn=1,12 :
 --------------------------------------------------------
|  sn= 1 | S(rot)=       0.01381227 Eh      8.67 kcal/mol|
|  sn= 2 | S(rot)=       0.01315781 Eh      8.26 kcal/mol|
|  sn= 3 | S(rot)=       0.01277498 Eh      8.02 kcal/mol|
|  sn= 4 | S(rot)=       0.01250336 Eh      7.85 kcal/mol|
|  sn= 5 | S(rot)=       0.01229267 Eh      7.71 kcal/mol|
|  sn= 6 | S(rot)=       0.01212052 Eh      7.61 kcal/mol|
|  sn= 7 | S(rot)=       0.01197498 Eh      7.51 kcal/mol|
|  sn= 8 | S(rot)=       0.01184890 Eh      7.44 kcal/mol|
|  sn= 9 | S(rot)=       0.01173769 Eh      7.37 kcal/mol|
|  sn=10 | S(rot)=       0.01163821 Eh      7.30 kcal/mol|
|  sn=11 | S(rot)=       0.01154822 Eh      7.25 kcal/mol|
|  sn=12 | S(rot)=       0.01146607 Eh      7.20 kcal/mol|
 --------------------------------------------------------

-------------------
GIBBS FREE ENERGY
-------------------

                             ****ORCA TERMINATED NORMALLY****
TOTAL RUN TIME: 0 days 3 hours 58 minutes 7 seconds 201 msec
